# vtk DataFile Version 3.0
vtk output
ASCII
DATASET UNSTRUCTURED_GRID
FIELD FieldData 2
TIME 1 1 double
0
CYCLE 1 1 int
0
POINTS 8 float
0 0 0
100 0 0
100 100 0
0 100 0
0 0 100
100 0 100
100 100 100
0 100 100

CELLS 1 9
8 0 1 2 3 4 5 6 7

CELL_TYPES 1
12

POINT_DATA 8
SCALARS NODE_ID int 1
LOOKUP_TABLE default
1
2
3
4
5
6
7
8

VECTORS Velocity float
0 0 0
0 0 0
0 0 0
0 0 0
0 0 0
0 0 0
0 0 0
0 0 0

VECTORS Acceleration float
0 0 0
0 0 0
0 0 0
0 0 0
0 0 -1189.62
0 0 -1189.62
0 0 -1189.62
0 0 -1189.62

VECTORS Internal_Forces float
0 0 0
0 0 0
0 0 0
0 0 0
0 0 0
0 0 0
0 0 0
0 0 0

CELL_DATA 1
SCALARS ELEMENT_ID int 1
LOOKUP_TABLE default
1

SCALARS PART_ID int 1
LOOKUP_TABLE default
1

SCALARS EROSION_STATUS int 1
LOOKUP_TABLE default
1

SCALARS 3DELEM_Pressure float 1
LOOKUP_TABLE default
0

SCALARS 3DELEM_Stress_X_ float 1
LOOKUP_TABLE default
0

SCALARS 3DELEM_Stress_Y_ float 1
LOOKUP_TABLE default
0

SCALARS 3DELEM_Stress_Z_ float 1
LOOKUP_TABLE default
0

