# vtk DataFile Version 3.0
vtk output
ASCII
DATASET UNSTRUCTURED_GRID
FIELD FieldData 2
TIME 1 1 double
0.0
CYCLE 1 1 int
0
POINTS 71 float
-33.0 -80.0 0.0
-43.0 -80.0 0.0
-43.0 -90.0 0.0
-33.0 -90.0 0.0
-33.0 -80.0 10.0
-43.0 -80.0 10.0
-43.0 -90.0 10.0
-33.0 -90.0 10.0
27.0 -80.0 0.0
17.0 -80.0 0.0
17.0 -90.0 0.0
27.0 -90.0 0.0
27.0 -80.0 10.0
17.0 -80.0 10.0
17.0 -90.0 10.0
27.0 -90.0 10.0
37.0 -80.0 0.0
37.0 -90.0 0.0
37.0 -80.0 10.0
37.0 -90.0 10.0
47.0 -80.0 0.0
47.0 -90.0 0.0
47.0 -80.0 10.0
47.0 -90.0 10.0
7.0 -80.0 0.0
7.0 -90.0 0.0
7.0 -80.0 10.0
7.0 -90.0 10.0
-3.0 -80.0 0.0
-3.0 -90.0 0.0
-3.0 -80.0 10.0
-3.0 -90.0 10.0
-13.0 -80.0 0.0
-13.0 -90.0 0.0
-13.0 -80.0 10.0
-13.0 -90.0 10.0
-23.0 -80.0 0.0
-23.0 -90.0 0.0
-23.0 -80.0 10.0
-23.0 -90.0 10.0
25.0 -59.378212 24.35723
25.0 -59.378277 -14.36277
25.0 -106.64431 -14.36277
25.0 -106.64434 24.35723
36.0 -59.378212 24.35723
36.0 -106.64434 24.35723
36.0 -106.64431 -14.36277
36.0 -59.378277 -14.36277
0.0 0.0 1.0
1.0 0.0 0.0
0.0 1.0 0.0
0.0 0.0 1.0
1.0 0.0 0.0
0.0 1.0 0.0
0.0 0.0 1.0
1.0 0.0 0.0
0.0 1.0 0.0
0.0 0.0 1.0
1.0 0.0 0.0
0.0 1.0 0.0
0.0 0.0 1.0
1.0 0.0 0.0
0.0 1.0 0.0
0.0 0.0 1.0
1.0 0.0 0.0
0.0 1.0 0.0
0.0 0.0 1.0
1.0 0.0 0.0
0.0 1.0 0.0
0.0 0.0 1.0
30.5 -80.54793 4.9972296

CELLS 28 160
2 70 42
2 70 41
2 70 40
2 70 43
2 70 46
2 70 47
2 70 44
2 70 45
4 40 41 42 43
4 44 45 46 47
4 41 40 44 47
4 48 49 50 50
4 51 52 53 53
4 54 55 56 56
4 57 58 59 59
4 60 61 62 62
4 63 64 65 65
4 66 67 68 68
4 67 68 69 69
8 8 9 10 11 12 13 14 15
8 16 8 11 17 18 12 15 19
8 9 24 25 10 13 26 27 14
8 24 28 29 25 26 30 31 27
8 28 32 33 29 30 34 35 31
8 32 36 37 33 34 38 39 35
8 36 0 3 37 38 4 7 39
8 0 1 2 3 4 5 6 7
8 20 16 17 21 22 18 19 23

CELL_TYPES 28
3
3
3
3
3
3
3
3
9
9
9
5
5
5
5
5
5
5
5
12
12
12
12
12
12
12
12
12

POINT_DATA 71
SCALARS NODE_ID int 1
LOOKUP_TABLE default
166
14
15
167
169
17
16
168
2
1
4
3
6
8
7
5
18
19
21
20
150
151
153
152
170
173
177
176
178
181
185
184
186
189
193
192
194
197
201
200
11
10
9
12
163
164
161
162
82
83
84
85
86
87
88
89
90
91
92
93
94
95
96
97
98
99
100
101
102
103
165

SCALARS Mass_Change float 1
LOOKUP_TABLE default
0.0
0.0
0.0
0.0
0.0
0.0
0.0
0.0
0.0
0.0
0.0
0.0
0.0
0.0
0.0
0.0
0.0
0.0
0.0
0.0
0.0
0.0
0.0
0.0
0.0
0.0
0.0
0.0
0.0
0.0
0.0
0.0
0.0
0.0
0.0
0.0
0.0
0.0
0.0
0.0
0.0
0.0
0.0
0.0
0.0
0.0
0.0
0.0
0.0
0.0
0.0
0.0
0.0
0.0
0.0
0.0
0.0
0.0
0.0
0.0
0.0
0.0
0.0
0.0
0.0
0.0
0.0
0.0
0.0
0.0
0.0

SCALARS Nodal_Pressure float 1
LOOKUP_TABLE default
100.0
100.0
100.0
100.0
100.0
100.0
100.0
100.0
100.0
100.0
100.0
100.0
100.0
100.0
100.0
100.0
100.0
100.0
100.0
100.0
100.0
100.0
100.0
100.0
100.0
100.0
100.0
100.0
100.0
100.0
100.0
100.0
100.0
100.0
100.0
100.0
100.0
100.0
100.0
100.0
0.0
0.0
0.0
0.0
0.0
0.0
0.0
0.0
0.0
0.0
0.0
0.0
0.0
0.0
0.0
0.0
0.0
0.0
0.0
0.0
0.0
0.0
0.0
0.0
0.0
0.0
0.0
0.0
0.0
0.0
0.0

SCALARS Nodal_Density float 1
LOOKUP_TABLE default
122.0
122.0
122.0
122.0
122.0
122.0
122.0
122.0
122.0
122.0
122.0
122.0
122.0
122.0
122.0
122.0
122.0
122.0
122.0
122.0
122.0
122.0
122.0
122.0
122.0
122.0
122.0
122.0
122.0
122.0
122.0
122.0
122.0
122.0
122.0
122.0
122.0
122.0
122.0
122.0
0.0
0.0
0.0
0.0
0.0
0.0
0.0
0.0
0.0
0.0
0.0
0.0
0.0
0.0
0.0
0.0
0.0
0.0
0.0
0.0
0.0
0.0
0.0
0.0
0.0
0.0
0.0
0.0
0.0
0.0
0.0

VECTORS Velocity float
-3.727437e-18 0.0 0.0
-7.454874e-18 0.0 0.0
-7.454874e-18 0.0 0.0
-3.727437e-18 0.0 0.0
-3.727437e-18 0.0 0.0
-7.454874e-18 0.0 0.0
-7.454874e-18 0.0 0.0
-3.727437e-18 0.0 0.0
3.3885793e-18 0.0 0.0
2.8672595e-18 0.0 0.0
2.8672595e-18 0.0 0.0
3.3885793e-18 0.0 0.0
3.3885793e-18 0.0 0.0
2.8672595e-18 0.0 0.0
2.8672595e-18 0.0 0.0
3.3885793e-18 0.0 0.0
0.0 0.0 0.0
0.0 0.0 0.0
0.0 0.0 0.0
0.0 0.0 0.0
0.0 0.0 0.0
0.0 0.0 0.0
0.0 0.0 0.0
0.0 0.0 0.0
0.0 0.0 0.0
0.0 0.0 0.0
0.0 0.0 0.0
0.0 0.0 0.0
0.0 0.0 0.0
0.0 0.0 0.0
0.0 0.0 0.0
0.0 0.0 0.0
0.0 0.0 0.0
0.0 0.0 0.0
0.0 0.0 0.0
0.0 0.0 0.0
0.0 0.0 0.0
0.0 0.0 0.0
0.0 0.0 0.0
0.0 0.0 0.0
0.0 0.0 0.0
0.0 0.0 0.0
0.0 0.0 0.0
0.0 0.0 0.0
0.0 0.0 0.0
0.0 0.0 0.0
0.0 0.0 0.0
0.0 0.0 0.0
0.0 0.0 0.0
0.0 0.0 0.0
0.0 0.0 0.0
0.0 0.0 0.0
0.0 0.0 0.0
0.0 0.0 0.0
0.0 0.0 0.0
0.0 0.0 0.0
0.0 0.0 0.0
0.0 0.0 0.0
0.0 0.0 0.0
0.0 0.0 0.0
0.0 0.0 0.0
0.0 0.0 0.0
0.0 0.0 0.0
0.0 0.0 0.0
0.0 0.0 0.0
0.0 0.0 0.0
0.0 0.0 0.0
0.0 0.0 0.0
0.0 0.0 0.0
0.0 0.0 0.0
0.0 0.0 0.0

VECTORS Acceleration float
0.0 0.0 0.0
0.0 0.0 0.0
0.0 0.0 0.0
0.0 0.0 0.0
0.0 0.0 0.0
0.0 0.0 0.0
0.0 0.0 0.0
0.0 0.0 0.0
0.0 0.0 0.0
0.0 0.0 0.0
0.0 0.0 0.0
0.0 0.0 0.0
0.0 0.0 0.0
0.0 0.0 0.0
0.0 0.0 0.0
0.0 0.0 0.0
0.0 0.0 0.0
0.0 0.0 0.0
0.0 0.0 0.0
0.0 0.0 0.0
0.0 0.0 0.0
0.0 0.0 0.0
0.0 0.0 0.0
0.0 0.0 0.0
0.0 0.0 0.0
0.0 0.0 0.0
0.0 0.0 0.0
0.0 0.0 0.0
0.0 0.0 0.0
0.0 0.0 0.0
0.0 0.0 0.0
0.0 0.0 0.0
0.0 0.0 0.0
0.0 0.0 0.0
0.0 0.0 0.0
0.0 0.0 0.0
0.0 0.0 0.0
0.0 0.0 0.0
0.0 0.0 0.0
0.0 0.0 0.0
-0.2 0.0 0.0
-0.2 0.0 0.0
-0.2 0.0 0.0
-0.2 0.0 0.0
-0.2 0.0 0.0
-0.2 0.0 0.0
-0.2 0.0 0.0
-0.2 0.0 0.0
0.0 0.0 0.0
0.0 0.0 0.0
0.0 0.0 0.0
0.0 0.0 0.0
0.0 0.0 0.0
0.0 0.0 0.0
0.0 0.0 0.0
0.0 0.0 0.0
0.0 0.0 0.0
0.0 0.0 0.0
0.0 0.0 0.0
0.0 0.0 0.0
0.0 0.0 0.0
0.0 0.0 0.0
0.0 0.0 0.0
0.0 0.0 0.0
0.0 0.0 0.0
0.0 0.0 0.0
0.0 0.0 0.0
0.0 0.0 0.0
0.0 0.0 0.0
0.0 0.0 0.0
-0.2 0.0 0.0

VECTORS Contact_Forces float
0.0 0.0 0.0
0.0 0.0 0.0
0.0 0.0 0.0
0.0 0.0 0.0
0.0 0.0 0.0
0.0 0.0 0.0
0.0 0.0 0.0
0.0 0.0 0.0
0.0 0.0 0.0
0.0 0.0 0.0
0.0 0.0 0.0
0.0 0.0 0.0
0.0 0.0 0.0
0.0 0.0 0.0
0.0 0.0 0.0
0.0 0.0 0.0
0.0 0.0 0.0
0.0 0.0 0.0
0.0 0.0 0.0
0.0 0.0 0.0
0.0 0.0 0.0
0.0 0.0 0.0
0.0 0.0 0.0
0.0 0.0 0.0
0.0 0.0 0.0
0.0 0.0 0.0
0.0 0.0 0.0
0.0 0.0 0.0
0.0 0.0 0.0
0.0 0.0 0.0
0.0 0.0 0.0
0.0 0.0 0.0
0.0 0.0 0.0
0.0 0.0 0.0
0.0 0.0 0.0
0.0 0.0 0.0
0.0 0.0 0.0
0.0 0.0 0.0
0.0 0.0 0.0
0.0 0.0 0.0
0.0 0.0 0.0
0.0 0.0 0.0
0.0 0.0 0.0
0.0 0.0 0.0
0.0 0.0 0.0
0.0 0.0 0.0
0.0 0.0 0.0
0.0 0.0 0.0
0.0 0.0 0.0
0.0 0.0 0.0
0.0 0.0 0.0
0.0 0.0 0.0
0.0 0.0 0.0
0.0 0.0 0.0
0.0 0.0 0.0
0.0 0.0 0.0
0.0 0.0 0.0
0.0 0.0 0.0
0.0 0.0 0.0
0.0 0.0 0.0
0.0 0.0 0.0
0.0 0.0 0.0
0.0 0.0 0.0
0.0 0.0 0.0
0.0 0.0 0.0
0.0 0.0 0.0
0.0 0.0 0.0
0.0 0.0 0.0
0.0 0.0 0.0
0.0 0.0 0.0
0.0 0.0 0.0

VECTORS Internal_Forces float
0.0 5000.0 -5000.0
-2500.0 2500.0 -2500.0
-2500.0 -2500.0 -2500.0
0.0 -5000.0 -5000.0
0.0 5000.0 5000.0
-2500.0 2500.0 2500.0
-2500.0 -2500.0 2500.0
0.0 -5000.0 5000.0
0.0 5000.0 -5000.0
0.0 5000.0 -5000.0
0.0 -5000.0 -5000.0
0.0 -5000.0 -5000.0
0.0 5000.0 5000.0
0.0 5000.0 5000.0
0.0 -5000.0 5000.0
0.0 -5000.0 5000.0
0.0 5000.0 -5000.0
0.0 -5000.0 -5000.0
0.0 5000.0 5000.0
0.0 -5000.0 5000.0
2500.0 2500.0 -2500.0
2500.0 -2500.0 -2500.0
2500.0 2500.0 2500.0
2500.0 -2500.0 2500.0
0.0 5000.0 -5000.0
0.0 -5000.0 -5000.0
0.0 5000.0 5000.0
0.0 -5000.0 5000.0
0.0 5000.0 -5000.0
0.0 -5000.0 -5000.0
0.0 5000.0 5000.0
0.0 -5000.0 5000.0
0.0 5000.0 -5000.0
0.0 -5000.0 -5000.0
0.0 5000.0 5000.0
0.0 -5000.0 5000.0
0.0 5000.0 -5000.0
0.0 -5000.0 -5000.0
0.0 5000.0 5000.0
0.0 -5000.0 5000.0
0.0 0.0 0.0
0.0 0.0 0.0
0.0 0.0 0.0
0.0 0.0 0.0
0.0 0.0 0.0
0.0 0.0 0.0
0.0 0.0 0.0
0.0 0.0 0.0
0.0 0.0 0.0
0.0 0.0 0.0
0.0 0.0 0.0
0.0 0.0 0.0
0.0 0.0 0.0
0.0 0.0 0.0
0.0 0.0 0.0
0.0 0.0 0.0
0.0 0.0 0.0
0.0 0.0 0.0
0.0 0.0 0.0
0.0 0.0 0.0
0.0 0.0 0.0
0.0 0.0 0.0
0.0 0.0 0.0
0.0 0.0 0.0
0.0 0.0 0.0
0.0 0.0 0.0
0.0 0.0 0.0
0.0 0.0 0.0
0.0 0.0 0.0
0.0 0.0 0.0
0.0 0.0 0.0

CELL_DATA 28
SCALARS ELEMENT_ID int 1
LOOKUP_TABLE default
0
0
0
0
0
0
0
0
1
2036
2037
2002
2003
2004
2005
2006
2007
2008
2009
20
30
41
42
43
44
45
10
40

SCALARS PART_ID int 1
LOOKUP_TABLE default
1
1
1
1
1
1
1
1
1
1
1
6
6
6
6
6
6
6
6
2
2
2
2
2
2
2
3
5

SCALARS EROSION_STATUS int 1
LOOKUP_TABLE default
1
1
1
1
1
1
1
1
0
0
0
1
1
1
1
1
1
1
1
1
1
1
1
1
1
1
1
1

SCALARS 1DELEM_Specific_Energy float 1
LOOKUP_TABLE default
0.0
0.0
0.0
0.0
0.0
0.0
0.0
0.0
0
0
0
0
0
0
0
0
0
0
0
0
0
0
0
0
0
0
0
0

SCALARS 2DELEM_Density float 1
LOOKUP_TABLE default
0
0
0
0
0
0
0
0
0.0
0.0
0.0
0.0
0.0
0.0
0.0
0.0
0.0
0.0
0.0
0
0
0
0
0
0
0
0
0

SCALARS 2DELEM_Specific_Energy float 1
LOOKUP_TABLE default
0
0
0
0
0
0
0
0
0.0
0.0
0.0
0.0
0.0
0.0
0.0
0.0
0.0
0.0
0.0
0
0
0
0
0
0
0
0
0

SCALARS 2DELEM_Pressure float 1
LOOKUP_TABLE default
0
0
0
0
0
0
0
0
0.0
0.0
0.0
0.0
0.0
0.0
0.0
0.0
0.0
0.0
0.0
0
0
0
0
0
0
0
0
0

SCALARS 3DELEM_Density float 1
LOOKUP_TABLE default
0
0
0
0
0
0
0
0
0
0
0
0
0
0
0
0
0
0
0
122.0
122.0
122.0
122.0
122.0
122.0
122.0
122.0
122.0

SCALARS 3DELEM_Specific_Energy float 1
LOOKUP_TABLE default
0
0
0
0
0
0
0
0
0
0
0
0
0
0
0
0
0
0
0
0.8196721
0.8196721
0.8196721
0.8196721
0.8196721
0.8196721
0.8196721
0.8196721
0.8196721

SCALARS 3DELEM_Pressure float 1
LOOKUP_TABLE default
0
0
0
0
0
0
0
0
0
0
0
0
0
0
0
0
0
0
0
100.0
100.0
100.0
100.0
100.0
100.0
100.0
100.0
100.0

