# vtk DataFile Version 3.0
vtk output
ASCII
DATASET UNSTRUCTURED_GRID
FIELD FieldData 2
TIME 1 1 double
0
CYCLE 1 1 int
0
POINTS 71 float
-33 -80 0
-43 -80 0
-43 -90 0
-33 -90 0
-33 -80 10
-43 -80 10
-43 -90 10
-33 -90 10
27 -80 0
17 -80 0
17 -90 0
27 -90 0
27 -80 10
17 -80 10
17 -90 10
27 -90 10
37 -80 0
37 -90 0
37 -80 10
37 -90 10
47 -80 0
47 -90 0
47 -80 10
47 -90 10
7 -80 0
7 -90 0
7 -80 10
7 -90 10
-3 -80 0
-3 -90 0
-3 -80 10
-3 -90 10
-13 -80 0
-13 -90 0
-13 -80 10
-13 -90 10
-23 -80 0
-23 -90 0
-23 -80 10
-23 -90 10
25 -59.3782 24.3572
25 -59.3783 -14.3628
25 -106.644 -14.3628
25 -106.644 24.3572
36 -59.3782 24.3572
36 -106.644 24.3572
36 -106.644 -14.3628
36 -59.3783 -14.3628
0 0 1
1 0 0
0 1 0
0 0 1
1 0 0
0 1 0
0 0 1
1 0 0
0 1 0
0 0 1
1 0 0
0 1 0
0 0 1
1 0 0
0 1 0
0 0 1
1 0 0
0 1 0
0 0 1
1 0 0
0 1 0
0 0 1
30.5 -80.5479 4.99723

CELLS 28 160
2 70 42
2 70 41
2 70 40
2 70 43
2 70 46
2 70 47
2 70 44
2 70 45
4 40 41 42 43
4 44 45 46 47
4 41 40 44 47
4 48 49 50 50
4 51 52 53 53
4 54 55 56 56
4 57 58 59 59
4 60 61 62 62
4 63 64 65 65
4 66 67 68 68
4 67 68 69 69
8 8 9 10 11 12 13 14 15
8 16 8 11 17 18 12 15 19
8 9 24 25 10 13 26 27 14
8 24 28 29 25 26 30 31 27
8 28 32 33 29 30 34 35 31
8 32 36 37 33 34 38 39 35
8 36 0 3 37 38 4 7 39
8 0 1 2 3 4 5 6 7
8 20 16 17 21 22 18 19 23

CELL_TYPES 28
3
3
3
3
3
3
3
3
9
9
9
5
5
5
5
5
5
5
5
12
12
12
12
12
12
12
12
12

POINT_DATA 71
SCALARS NODE_ID int 1
LOOKUP_TABLE default
166
14
15
167
169
17
16
168
2
1
4
3
6
8
7
5
18
19
21
20
150
151
153
152
170
173
177
176
178
181
185
184
186
189
193
192
194
197
201
200
11
10
9
12
163
164
161
162
82
83
84
85
86
87
88
89
90
91
92
93
94
95
96
97
98
99
100
101
102
103
165

SCALARS Mass_Change float 1
LOOKUP_TABLE default
0
0
0
0
0
0
0
0
0
0
0
0
0
0
0
0
0
0
0
0
0
0
0
0
0
0
0
0
0
0
0
0
0
0
0
0
0
0
0
0
0
0
0
0
0
0
0
0
0
0
0
0
0
0
0
0
0
0
0
0
0
0
0
0
0
0
0
0
0
0
0

SCALARS Nodal_Pressure float 1
LOOKUP_TABLE default
100
100
100
100
100
100
100
100
100
100
100
100
100
100
100
100
100
100
100
100
100
100
100
100
100
100
100
100
100
100
100
100
100
100
100
100
100
100
100
100
0
0
0
0
0
0
0
0
0
0
0
0
0
0
0
0
0
0
0
0
0
0
0
0
0
0
0
0
0
0
0

SCALARS Nodal_Density float 1
LOOKUP_TABLE default
122
122
122
122
122
122
122
122
122
122
122
122
122
122
122
122
122
122
122
122
122
122
122
122
122
122
122
122
122
122
122
122
122
122
122
122
122
122
122
122
0
0
0
0
0
0
0
0
0
0
0
0
0
0
0
0
0
0
0
0
0
0
0
0
0
0
0
0
0
0
0

VECTORS Velocity float
-3.72744e-18 0 0
-7.45487e-18 0 0
-7.45487e-18 0 0
-3.72744e-18 0 0
-3.72744e-18 0 0
-7.45487e-18 0 0
-7.45487e-18 0 0
-3.72744e-18 0 0
3.38858e-18 0 0
2.86726e-18 0 0
2.86726e-18 0 0
3.38858e-18 0 0
3.38858e-18 0 0
2.86726e-18 0 0
2.86726e-18 0 0
3.38858e-18 0 0
0 0 0
0 0 0
0 0 0
0 0 0
0 0 0
0 0 0
0 0 0
0 0 0
0 0 0
0 0 0
0 0 0
0 0 0
0 0 0
0 0 0
0 0 0
0 0 0
0 0 0
0 0 0
0 0 0
0 0 0
0 0 0
0 0 0
0 0 0
0 0 0
0 0 0
0 0 0
0 0 0
0 0 0
0 0 0
0 0 0
0 0 0
0 0 0
0 0 0
0 0 0
0 0 0
0 0 0
0 0 0
0 0 0
0 0 0
0 0 0
0 0 0
0 0 0
0 0 0
0 0 0
0 0 0
0 0 0
0 0 0
0 0 0
0 0 0
0 0 0
0 0 0
0 0 0
0 0 0
0 0 0
0 0 0

VECTORS Acceleration float
0 0 0
0 0 0
0 0 0
0 0 0
0 0 0
0 0 0
0 0 0
0 0 0
0 0 0
0 0 0
0 0 0
0 0 0
0 0 0
0 0 0
0 0 0
0 0 0
0 0 0
0 0 0
0 0 0
0 0 0
0 0 0
0 0 0
0 0 0
0 0 0
0 0 0
0 0 0
0 0 0
0 0 0
0 0 0
0 0 0
0 0 0
0 0 0
0 0 0
0 0 0
0 0 0
0 0 0
0 0 0
0 0 0
0 0 0
0 0 0
-0.2 0 0
-0.2 0 0
-0.2 0 0
-0.2 0 0
-0.2 0 0
-0.2 0 0
-0.2 0 0
-0.2 0 0
0 0 0
0 0 0
0 0 0
0 0 0
0 0 0
0 0 0
0 0 0
0 0 0
0 0 0
0 0 0
0 0 0
0 0 0
0 0 0
0 0 0
0 0 0
0 0 0
0 0 0
0 0 0
0 0 0
0 0 0
0 0 0
0 0 0
-0.2 0 0

VECTORS Contact_Forces float
0 0 0
0 0 0
0 0 0
0 0 0
0 0 0
0 0 0
0 0 0
0 0 0
0 0 0
0 0 0
0 0 0
0 0 0
0 0 0
0 0 0
0 0 0
0 0 0
0 0 0
0 0 0
0 0 0
0 0 0
0 0 0
0 0 0
0 0 0
0 0 0
0 0 0
0 0 0
0 0 0
0 0 0
0 0 0
0 0 0
0 0 0
0 0 0
0 0 0
0 0 0
0 0 0
0 0 0
0 0 0
0 0 0
0 0 0
0 0 0
0 0 0
0 0 0
0 0 0
0 0 0
0 0 0
0 0 0
0 0 0
0 0 0
0 0 0
0 0 0
0 0 0
0 0 0
0 0 0
0 0 0
0 0 0
0 0 0
0 0 0
0 0 0
0 0 0
0 0 0
0 0 0
0 0 0
0 0 0
0 0 0
0 0 0
0 0 0
0 0 0
0 0 0
0 0 0
0 0 0
0 0 0

VECTORS Internal_Forces float
0 5000 -5000
-2500 2500 -2500
-2500 -2500 -2500
0 -5000 -5000
0 5000 5000
-2500 2500 2500
-2500 -2500 2500
0 -5000 5000
0 5000 -5000
0 5000 -5000
0 -5000 -5000
0 -5000 -5000
0 5000 5000
0 5000 5000
0 -5000 5000
0 -5000 5000
0 5000 -5000
0 -5000 -5000
0 5000 5000
0 -5000 5000
2500 2500 -2500
2500 -2500 -2500
2500 2500 2500
2500 -2500 2500
0 5000 -5000
0 -5000 -5000
0 5000 5000
0 -5000 5000
0 5000 -5000
0 -5000 -5000
0 5000 5000
0 -5000 5000
0 5000 -5000
0 -5000 -5000
0 5000 5000
0 -5000 5000
0 5000 -5000
0 -5000 -5000
0 5000 5000
0 -5000 5000
0 0 0
0 0 0
0 0 0
0 0 0
0 0 0
0 0 0
0 0 0
0 0 0
0 0 0
0 0 0
0 0 0
0 0 0
0 0 0
0 0 0
0 0 0
0 0 0
0 0 0
0 0 0
0 0 0
0 0 0
0 0 0
0 0 0
0 0 0
0 0 0
0 0 0
0 0 0
0 0 0
0 0 0
0 0 0
0 0 0
0 0 0

CELL_DATA 28
SCALARS ELEMENT_ID int 1
LOOKUP_TABLE default
0
0
0
0
0
0
0
0
1
2036
2037
2002
2003
2004
2005
2006
2007
2008
2009
20
30
41
42
43
44
45
10
40

SCALARS PART_ID int 1
LOOKUP_TABLE default
1
1
1
1
1
1
1
1
1
1
1
6
6
6
6
6
6
6
6
2
2
2
2
2
2
2
3
5

SCALARS EROSION_STATUS int 1
LOOKUP_TABLE default
1
1
1
1
1
1
1
1
0
0
0
1
1
1
1
1
1
1
1
1
1
1
1
1
1
1
1
1

SCALARS 1DELEM_Specific_Energy float 1
LOOKUP_TABLE default
0
0
0
0
0
0
0
0
0
0
0
0
0
0
0
0
0
0
0
0
0
0
0
0
0
0
0
0

SCALARS 2DELEM_Density float 1
LOOKUP_TABLE default
0
0
0
0
0
0
0
0
0
0
0
0
0
0
0
0
0
0
0
0
0
0
0
0
0
0
0
0

SCALARS 2DELEM_Specific_Energy float 1
LOOKUP_TABLE default
0
0
0
0
0
0
0
0
0
0
0
0
0
0
0
0
0
0
0
0
0
0
0
0
0
0
0
0

SCALARS 2DELEM_Pressure float 1
LOOKUP_TABLE default
0
0
0
0
0
0
0
0
0
0
0
0
0
0
0
0
0
0
0
0
0
0
0
0
0
0
0
0

SCALARS 3DELEM_Density float 1
LOOKUP_TABLE default
0
0
0
0
0
0
0
0
0
0
0
0
0
0
0
0
0
0
0
122
122
122
122
122
122
122
122
122

SCALARS 3DELEM_Specific_Energy float 1
LOOKUP_TABLE default
0
0
0
0
0
0
0
0
0
0
0
0
0
0
0
0
0
0
0
0.819672
0.819672
0.819672
0.819672
0.819672
0.819672
0.819672
0.819672
0.819672

SCALARS 3DELEM_Pressure float 1
LOOKUP_TABLE default
0
0
0
0
0
0
0
0
0
0
0
0
0
0
0
0
0
0
0
100
100
100
100
100
100
100
100
100

