# vtk DataFile Version 3.0
vtk output
ASCII
DATASET UNSTRUCTURED_GRID
FIELD FieldData 2
TIME 1 1 double
0.0253839
CYCLE 1 1 int
0
POINTS 207 float
-57.5 9.5 0
-57.5 4.75 9.65e-25
-57.5 6.66e-16 1.22e-24
-57.5 -4.75 1.06e-24
-57.5 -9.5 0
-62.5 -9.5 0
-67.5 -9.5 0
-72.5 -9.5 0
-77.5 -9.5 0
-82.5 -9.49999 0
-82.5 -4.74999 0
-82.5 0 0
-82.5 4.75 0
-82.5 9.5 0
-77.5 9.5 0
-72.5 9.5 0
-67.5 9.5 0
-62.5 9.5 0
-67.5 -4.74999 0
-67.5 0 0
-67.5 4.75 0
-62.5 0 0
-62.5 -4.75 0
-62.5 4.75 0
-77.5 0 0
-72.5 0 0
-77.5 -4.74999 0
-72.5 -4.74999 0
-77.5 4.75 0
-72.5 4.75 0
-49.6424 -9.50001 -1.23427e-23
-53.5712 -9.5 0
-53.5712 9.50001 0
-49.6424 9.50002 1.19173e-23
-49.6424 4.75001 6.08e-15
-49.6424 -1.46853e-09 6.08e-15
-49.6424 -4.75 6.08e-15
-53.5712 0 0
-53.5712 -4.75 0
-53.5712 4.75 0
-28.4965 -6.49872 -7.28026e-21
-32.7819 -6.62056 -1.22463e-21
-37.0517 -6.98271 1.0215e-22
-41.2938 -7.58455 2.84751e-23
-45.4952 -8.42462 3.23147e-23
-45.4951 8.42459 1.0409e-18
-41.2938 7.58456 5.49604e-14
-37.0518 6.98278 4.86924e-09
-32.7826 6.62087 -5.13191e-09
-28.4967 6.49865 -8.69508e-14
-28.497 3.24962 5.23138e-14
-28.497 4.23395e-05 -3.34094e-14
-28.4969 -3.24956 -3.47986e-19
-41.4544 3.8216 -3.45142e-14
-41.4894 -1.00319e-06 2.52533e-14
-41.4544 -3.8216 2.27649e-19
-45.634 -1.69025e-07 2.76327e-19
-45.6146 4.24922 -6.31989e-19
-45.6146 -4.24923 6.44212e-21
-32.8866 1.21188e-05 1.22874e-14
-37.2289 -2.01517e-05 -1.82996e-14
-32.8657 3.3262 5.06824e-09
-37.1949 3.51282 -4.80558e-09
-32.865 -3.32609 1.24424e-19
-37.1948 -3.51279 -1.53987e-19
-24.9912 -6.49673 3.69598e-21
-24.9925 -3.24874 1.31507e-21
-24.9927 3.41688e-06 -5.77403e-19
-24.9925 3.24875 1.30077e-18
-24.9913 6.49675 -2.48045e-18
-21.4112 6.49391 1.67781e-20
-17.829 6.49125 -1.11351e-19
-14.2459 6.48897 1.52487e-19
-10.6616 6.48767 -4.47438e-20
-7.07678 6.48639 3.67463e-19
-3.48879 6.48532 -6.3386e-19
0.0989345 6.48779 1.07124e-18
3.68971 6.48926 -1.23876e-18
7.27621 6.49102 3.67076e-19
10.861 6.49188 4.0877e-18
14.4467 6.48938 -5.94614e-18
18.0294 6.48933 -5.28269e-19
21.6179 6.4883 1.19617e-17
25.1916 6.48867 -4.74244e-18
25.2012 3.24536 -1.48056e-17
25.1901 -3.7331e-08 3.45902e-18
25.2012 -3.24535 -1.67428e-17
25.1916 -6.48866 -4.43737e-18
21.6179 -6.4883 1.07732e-17
18.0294 -6.48933 4.46145e-19
14.4467 -6.48938 -3.26266e-18
10.861 -6.49188 2.87939e-18
7.27621 -6.49102 -1.12152e-18
3.68971 -6.48926 -3.6798e-19
0.0989345 -6.48779 1.10865e-18
-3.48879 -6.48532 -7.48098e-19
-7.07678 -6.48639 5.14001e-19
-10.6616 -6.48767 -2.13587e-19
-14.2459 -6.48897 -1.00839e-19
-17.829 -6.49125 5.60956e-20
-21.4112 -6.4939 1.37613e-21
0.101039 3.24349 -6.75856e-19
0.101522 8.47302e-09 1.16486e-18
0.101039 -3.24348 -4.77394e-19
-14.2487 3.24424 5.24227e-20
-14.2505 3.71565e-09 9.01787e-21
-14.2487 -3.24423 -1.65713e-20
-17.8336 3.49564e-08 -4.60836e-20
-21.4143 1.43548e-08 3.28501e-20
-17.8324 3.24561 -9.05356e-20
-21.4136 3.24742 1.84947e-20
-17.8324 -3.2456 4.11456e-20
-21.4136 -3.24741 1.56438e-20
-7.07473 3.24251 -4.98938e-20
-7.0746 -2.95457e-09 2.41438e-19
-7.07473 -3.2425 -4.67386e-21
-10.6634 -9.85754e-11 -1.08357e-19
-10.6628 3.24299 4.33987e-20
-10.6628 -3.24298 -6.73143e-20
-3.48518 6.36209e-09 -4.2801e-19
-3.48772 3.24264 4.18891e-19
-3.48772 -3.24263 3.76814e-19
10.8621 3.24576 1.69662e-19
10.8609 3.72911e-08 3.39283e-18
10.8621 -3.24575 -2.08513e-19
7.27622 4.5842e-08 8.13214e-19
3.69009 3.03211e-08 -1.89206e-18
7.27784 3.246 7.9808e-19
3.68877 3.24596 -8.81087e-20
7.27784 -3.24599 -5.32538e-19
3.68877 -3.24595 7.07493e-19
18.0291 3.24389 -6.7103e-18
18.025 -3.04449e-08 6.59499e-18
18.0291 -3.24388 -5.1726e-18
14.4435 7.31941e-09 -8.76035e-18
14.444 3.24472 3.39068e-19
14.444 -3.24471 7.83284e-19
21.6161 1.87005e-08 3.74317e-18
21.6067 3.24364 1.89175e-17
21.6067 -3.24363 1.85771e-17
28.712 -6.4938 -7.70718e-17
28.7074 -3.24501 -5.82166e-17
28.7112 3.49446e-08 -6.69288e-17
28.7074 3.24501 -5.44909e-17
28.712 6.4938 -8.06587e-17
33.01 -6.60823 5.92589e-17
37.2966 -6.97018 1.80392e-16
41.5479 -7.57924 1.69876e-16
45.7701 -8.42196 5.46516e-17
49.9223 -9.49305 -3.21615e-17
49.9223 -4.74433 6.04155e-15
49.9226 -4.2594e-09 6.08186e-15
49.9223 4.74434 6.03676e-15
49.9223 9.49306 -2.66359e-17
45.77 8.42192 5.35869e-17
41.5479 7.57925 1.69052e-16
37.2967 6.9702 1.86161e-16
33.0099 6.60823 5.86286e-17
41.716 3.81919 1.69883e-16
41.7394 -5.21784e-08 2.10627e-16
41.716 -3.81919 1.66108e-16
45.9006 -2.53036e-08 8.37908e-17
45.8789 4.24717 1.2341e-16
45.8789 -4.24718 1.28524e-16
33.112 -1.6803e-07 7.54006e-17
37.4711 -4.29049e-09 2.12037e-16
33.0945 3.32158 7.09677e-17
37.4371 3.50691 1.98795e-16
33.0945 -3.32157 7.36196e-17
37.4371 -3.50689 1.9863e-16
53.8613 -9.5 0
57.7901 -9.5 0
57.7901 -4.75 1.06e-24
57.7901 -9e-09 1.22e-24
57.7901 4.75 9.65e-25
57.7901 9.5 0
53.8613 9.50001 0
53.8613 0 0
53.8613 -4.75 0
53.8613 4.75 0
62.7901 9.5 0
67.7901 9.5 0
72.7901 9.5 0
77.7901 9.5 0
82.7901 9.5 0
82.7901 4.75 0
82.7901 0 0
82.7901 -4.75 0
82.7901 -9.5 0
77.7901 -9.5 0
72.7901 -9.5 0
67.7901 -9.5 0
62.7901 -9.5 0
67.7901 4.75 0
67.7901 0 0
67.7901 -4.75 0
62.7901 0 0
62.7901 4.75 0
62.7901 -4.75 0
77.7901 0 0
72.7901 0 0
77.7901 4.75 0
72.7901 4.75 0
77.7901 -4.75 0
72.7901 -4.75 0
-67.1159 8.57676e-07 1.17234e-25
67.406 -6.28351e-08 1.17234e-25

CELLS 230 1010
2 205 6
2 205 7
2 205 8
2 205 9
2 205 10
2 205 11
2 205 12
2 205 13
2 205 14
2 205 15
2 205 16
2 205 18
2 205 19
2 205 20
2 205 24
2 205 25
2 205 26
2 205 27
2 205 28
2 205 29
2 205 0
2 205 1
2 205 2
2 205 3
2 205 4
2 205 5
2 205 17
2 205 21
2 205 22
2 205 23
2 205 31
2 205 32
2 205 37
2 205 38
2 205 39
2 206 181
2 206 182
2 206 183
2 206 184
2 206 185
2 206 186
2 206 187
2 206 188
2 206 189
2 206 190
2 206 191
2 206 193
2 206 194
2 206 195
2 206 199
2 206 200
2 206 201
2 206 202
2 206 203
2 206 204
2 206 170
2 206 171
2 206 172
2 206 173
2 206 174
2 206 175
2 206 176
2 206 177
2 206 178
2 206 179
2 206 180
2 206 192
2 206 196
2 206 197
2 206 198
4 107 105 104 109
4 109 104 72 71
4 108 107 109 110
4 110 109 71 70
4 67 108 110 68
4 68 110 70 69
4 99 98 106 111
4 111 106 105 107
4 100 99 111 112
4 112 111 107 108
4 65 100 112 66
4 66 112 108 67
4 116 114 113 117
4 117 113 74 73
4 105 116 117 104
4 104 117 73 72
4 97 96 115 118
4 118 115 114 116
4 98 97 118 106
4 106 118 116 105
4 119 102 101 120
4 120 101 76 75
4 114 119 120 113
4 113 120 75 74
4 95 94 103 121
4 121 103 102 119
4 96 95 121 115
4 115 121 119 114
4 24 11 10 26
4 26 10 9 8
4 25 24 26 27
4 27 26 8 7
4 19 25 27 18
4 18 27 7 6
4 14 13 12 28
4 28 12 11 24
4 15 14 28 29
4 29 28 24 25
4 16 15 29 20
4 20 29 25 19
4 38 31 30 36
4 37 38 36 35
4 39 37 35 34
4 32 39 34 33
4 54 53 57 56
4 53 46 45 57
4 56 57 34 35
4 57 45 33 34
4 43 55 58 44
4 55 54 56 58
4 44 58 36 30
4 58 56 35 36
4 51 50 61 59
4 50 49 48 61
4 59 61 62 60
4 61 48 47 62
4 60 62 53 54
4 62 47 46 53
4 40 52 63 41
4 52 51 59 63
4 41 63 64 42
4 63 59 60 64
4 42 64 55 43
4 64 60 54 55
4 40 65 66 52
4 52 66 67 51
4 51 67 68 50
4 50 68 69 49
4 21 19 18 22
4 22 18 6 5
4 2 21 22 3
4 3 22 5 4
4 17 16 20 23
4 23 20 19 21
4 0 17 23 1
4 1 23 21 2
4 3 4 31 38
4 2 3 38 37
4 1 2 37 39
4 0 1 39 32
4 125 123 122 127
4 127 122 79 78
4 126 125 127 128
4 128 127 78 77
4 102 126 128 101
4 101 128 77 76
4 92 91 124 129
4 129 124 123 125
4 93 92 129 130
4 130 129 125 126
4 94 93 130 103
4 103 130 126 102
4 134 132 131 135
4 135 131 81 80
4 123 134 135 122
4 122 135 80 79
4 90 89 133 136
4 136 133 132 134
4 91 90 136 124
4 124 136 134 123
4 137 85 84 138
4 138 84 83 82
4 132 137 138 131
4 131 138 82 81
4 88 87 86 139
4 139 86 85 137
4 89 88 139 133
4 133 139 137 132
4 199 186 185 201
4 201 185 184 183
4 200 199 201 202
4 202 201 183 182
4 194 200 202 193
4 193 202 182 181
4 189 188 187 203
4 203 187 186 199
4 190 189 203 204
4 204 203 199 200
4 191 190 204 195
4 195 204 200 194
4 87 140 141 86
4 86 141 142 85
4 85 142 143 84
4 84 143 144 83
4 159 161 162 158
4 158 162 154 155
4 161 151 152 162
4 162 152 153 154
4 147 148 163 160
4 160 163 161 159
4 148 149 150 163
4 163 150 151 161
4 142 164 166 143
4 143 166 157 144
4 164 165 167 166
4 166 167 156 157
4 165 159 158 167
4 167 158 155 156
4 140 145 168 141
4 141 168 164 142
4 145 146 169 168
4 168 169 165 164
4 146 147 160 169
4 169 160 159 165
4 178 150 149 170
4 177 151 150 178
4 179 152 151 177
4 176 153 152 179
4 172 178 170 171
4 173 177 178 172
4 174 179 177 173
4 175 176 179 174
4 196 194 193 197
4 197 193 181 180
4 173 196 197 174
4 174 197 180 175
4 192 191 195 198
4 198 195 194 196
4 171 192 198 172
4 172 198 196 173

CELL_TYPES 230
3
3
3
3
3
3
3
3
3
3
3
3
3
3
3
3
3
3
3
3
3
3
3
3
3
3
3
3
3
3
3
3
3
3
3
3
3
3
3
3
3
3
3
3
3
3
3
3
3
3
3
3
3
3
3
3
3
3
3
3
3
3
3
3
3
3
3
3
3
3
9
9
9
9
9
9
9
9
9
9
9
9
9
9
9
9
9
9
9
9
9
9
9
9
9
9
9
9
9
9
9
9
9
9
9
9
9
9
9
9
9
9
9
9
9
9
9
9
9
9
9
9
9
9
9
9
9
9
9
9
9
9
9
9
9
9
9
9
9
9
9
9
9
9
9
9
9
9
9
9
9
9
9
9
9
9
9
9
9
9
9
9
9
9
9
9
9
9
9
9
9
9
9
9
9
9
9
9
9
9
9
9
9
9
9
9
9
9
9
9
9
9
9
9
9
9
9
9
9
9
9
9
9
9
9
9
9
9
9
9
9
9
9
9
9
9
9
9
9
9
9
9
9
9
9
9
9
9
9
9

POINT_DATA 207
SCALARS NODE_ID int 1
LOOKUP_TABLE default
1
2
3
4
5
6
7
8
9
10
11
12
13
14
15
16
17
18
19
20
21
22
23
24
25
26
27
28
29
30
31
32
33
34
35
36
37
38
39
40
41
42
43
44
45
46
47
48
49
50
51
52
53
54
55
56
57
58
59
60
61
62
63
64
65
66
67
68
69
70
71
72
73
74
75
76
77
78
79
80
81
82
83
84
85
86
87
88
89
90
91
92
93
94
95
96
97
98
99
100
101
102
103
104
105
106
107
108
109
110
111
112
113
114
115
116
117
118
119
120
121
122
123
124
125
126
127
128
129
130
131
132
133
134
135
136
137
138
139
140
141
142
143
144
145
146
147
148
149
150
151
152
153
154
155
156
157
158
159
160
161
162
163
164
165
166
167
168
169
170
171
172
173
174
175
176
177
178
179
180
181
182
183
184
185
186
187
188
189
190
191
192
193
194
195
196
197
198
199
200
201
202
203
204
205
207
208

VECTORS Velocity float
0 0 0
0 0 0
0 0 0
0 0 0
0 0 0
0 0 0
0 0 0
0 0 0
0 0 0
0 0 0
0 0 0
0 0 0
0 0 0
0 0 0
0 0 0
0 0 0
0 0 0
0 0 0
0 0 0
0 0 0
0 0 0
0 0 0
0 0 0
0 0 0
0 0 0
0 0 0
0 0 0
0 0 0
0 0 0
0 0 0
3.23405e-05 1.39332e-05 -1.35425e-20
0 0 0
0 0 0
1.08809e-05 -3.31107e-06 1.38709e-20
1.66796e-05 -8.39679e-06 -2.9847e-20
2.79271e-05 -1.61893e-06 -2.96571e-20
3.45001e-05 -1.38762e-06 -3.40064e-20
0 0 0
0 0 0
0 0 0
2.39774 0.877122 -5.6776e-18
0.632895 0.24823 -1.38541e-18
0.10762 0.0447323 1.41988e-19
0.0122716 0.00524186 2.83503e-20
0.000746727 0.0002154 3.52125e-20
0.000199043 -0.000235542 1.19015e-15
-0.000171552 -0.00017282 6.2841e-11
8.77618e-05 -3.02955e-05 5.56742e-06
0.000159418 -7.42016e-05 -5.86776e-06
2.27691 -0.954377 -9.94184e-11
2.00958 -0.266111 5.98149e-11
1.99617 0.0381466 -3.81999e-11
2.09679 0.312869 -3.9656e-16
0.00321348 -0.0027315 -3.94631e-11
0.00693185 -0.000988575 2.88743e-11
0.0104317 -0.000258811 2.60289e-16
0.00055559 -0.000175671 3.15947e-16
0.000272388 -6.23964e-05 -7.22608e-16
0.000757057 7.24456e-05 7.36461e-18
0.5837 0.011184 1.40493e-11
0.0672278 -0.0179683 -2.09235e-11
0.000291429 -9.62385e-06 5.79496e-06
7.95143e-05 -2.03183e-05 -5.49464e-06
0.572917 0.0828367 1.42324e-16
0.105292 0.0145461 -1.76061e-16
4.9714 1.81146 2.91026e-18
4.23535 0.767739 3.3525e-18
4.05624 0.00331295 -6.57203e-16
4.22819 -0.767086 1.49011e-15
4.95742 -1.80607 -2.83734e-15
7.70404 -2.52623 1.02881e-17
9.34961 -2.26146 -4.41064e-17
9.8331 -1.47236 7.9713e-17
10.7014 -1.24854 -6.60193e-17
11.6986 -0.848938 9.46865e-17
13.5746 -0.566629 -1.53469e-16
15.098 1.71729 2.4967e-16
15.2628 2.15417 1.26132e-16
13.4561 0.586254 -6.80192e-16
10.9873 -0.318801 1.35402e-15
11.7831 -1.20943 -1.99336e-15
10.8658 -0.571356 1.88668e-15
9.71028 1.80433 2.099e-15
8.85148 2.87202 -7.86373e-15
11.8161 2.23436 -9.05114e-15
8.94614 3.95827e-05 -8.45885e-15
11.8161 -2.23432 -9.0204e-15
8.8514 -2.87206 -8.12466e-15
9.7103 -1.80427 1.956e-15
10.8657 0.571314 2.15146e-15
11.7831 1.20946 -1.70154e-15
10.9872 0.318779 9.30534e-16
13.4562 -0.586265 -6.10378e-16
15.2628 -2.15415 3.93008e-16
15.098 -1.71728 3.94084e-17
13.5746 0.566634 -1.926e-16
11.6986 0.848942 1.85746e-16
10.7014 1.24854 -8.04098e-17
9.83312 1.47236 -2.31861e-17
9.34966 2.26151 8.12508e-18
7.70517 2.52556 7.30841e-18
13.8583 0.969852 -1.63696e-16
13.135 8.04866e-06 4.33947e-16
13.8583 -0.969843 -2.04877e-16
10.5789 -1.20333 1.43908e-17
10.3273 3.97762e-06 -1.29964e-17
10.579 1.20332 -2.13823e-17
8.12567 3.50569e-05 -9.06855e-19
6.22315 1.61959e-05 2e-17
8.61879 -1.50281 -2.13824e-17
6.67448 -1.23772 7.06533e-18
8.61882 1.50278 1.36104e-17
6.67527 1.23855 1.41521e-17
13.8145 -0.524991 -9.0221e-17
15.2022 -5.06514e-06 1.452e-16
13.8145 0.524995 -7.12851e-17
13.4552 -1.60663e-06 -5.73308e-17
12.5732 -0.704025 1.04505e-17
12.5732 0.704024 1.28185e-17
14.3574 5.29667e-06 -2.32124e-16
13.4007 0.392362 2.79952e-16
13.4007 -0.392361 1.99111e-16
11.1288 -1.28782 -2.56733e-16
10.833 3.49697e-06 3.18404e-15
11.1288 1.2878 -3.77159e-16
13.4307 4.95904e-06 -1.04242e-15
13.7129 4.19419e-06 -2.70931e-16
14.0378 0.226043 6.03812e-16
15.0112 1.73976 -2.92378e-16
14.0378 -0.226029 5.20882e-16
15.0113 -1.73974 -9.59798e-17
10.2281 0.25455 1.97882e-15
9.46948 -1.3693e-05 4.04876e-15
10.2282 -0.254534 2.44959e-15
9.6742 -1.34512e-05 -4.97486e-15
8.93645 -0.683908 -1.08819e-15
8.93643 0.683886 -1.06868e-15
11.7482 -3.41435e-06 1.38706e-15
9.4096 0.60592 1.58521e-15
9.40961 -0.605945 1.53127e-15
10.4528 -1.89884 -3.79691e-15
14.2501 -2.66083 5.8989e-17
8.58544 -2.88634e-05 6.55396e-16
14.2502 2.66088 2.237e-16
10.4528 1.89884 -3.7671e-15
16.0062 -1.23861 1.44466e-14
14.1122 1.49728 4.35782e-15
13.7994 -3.90126 1.71478e-14
15.6707 -5.02686 5.60791e-15
15.6301 -0.71298 2.33767e-15
8.94323 3.94781 1.96028e-14
11.3179 1.40666e-05 3.13658e-14
8.9432 -3.94792 1.95839e-14
15.6303 0.713087 3.14416e-15
15.6706 5.02706 5.99839e-15
13.7996 3.90102 1.73337e-14
14.1121 -1.49719 3.71738e-15
16.0061 1.23869 1.48859e-14
12.7758 2.89497 9.44847e-15
8.80786 9.44502e-06 8.53218e-15
12.7759 -2.89493 9.69484e-15
6.48229 -3.22629e-05 1.22744e-14
11.3751 1.55181 1.99199e-14
11.3751 -1.55183 1.95581e-14
12.6483 -4.77536e-05 1.55517e-14
11.473 2.34167e-06 5.58189e-15
10.6738 -0.650441 1.90158e-14
9.87375 0.0894511 -1.7541e-15
10.674 0.650331 1.88068e-14
9.87366 -0.0894336 -1.46816e-15
11.457 0 0
11.457 0 0
11.457 0 0
11.457 0 0
11.457 0 0
11.457 0 0
11.457 0 0
11.457 0 0
11.457 0 0
11.457 0 0
11.457 0 0
11.457 0 0
11.457 0 0
11.457 0 0
11.457 0 0
11.457 0 0
11.457 0 0
11.457 0 0
11.457 0 0
11.457 0 0
11.457 0 0
11.457 0 0
11.457 0 0
11.457 0 0
11.457 0 0
11.457 0 0
11.457 0 0
11.457 0 0
11.457 0 0
11.457 0 0
11.457 0 0
11.457 0 0
11.457 0 0
11.457 0 0
11.457 0 0
0 0 0
11.457 0 0

CELL_DATA 230
SCALARS ELEMENT_ID int 1
LOOKUP_TABLE default
0
0
0
0
0
0
0
0
0
0
0
0
0
0
0
0
0
0
0
0
0
0
0
0
0
0
0
0
0
0
0
0
0
0
0
0
0
0
0
0
0
0
0
0
0
0
0
0
0
0
0
0
0
0
0
0
0
0
0
0
0
0
0
0
0
0
0
0
0
0
53
54
55
56
57
58
59
60
61
62
63
64
65
66
67
68
69
70
71
72
73
74
75
76
77
78
79
80
9
10
11
12
13
14
15
16
17
18
19
20
22
24
26
28
29
30
31
32
33
34
35
36
37
38
39
40
41
42
43
44
45
46
47
48
49
50
51
52
1
2
3
4
5
6
7
8
21
23
25
27
81
82
83
84
85
86
87
88
89
90
91
92
93
94
95
96
97
98
99
100
101
102
103
104
105
106
107
108
149
150
151
152
153
154
155
156
157
158
159
160
109
110
111
112
113
114
115
116
117
118
119
120
121
122
123
124
125
126
127
128
129
130
131
132
134
136
138
140
133
135
137
139
141
142
143
144
145
146
147
148

SCALARS PART_ID int 1
LOOKUP_TABLE default
207
207
207
207
207
207
207
207
207
207
207
207
207
207
207
207
207
207
207
207
207
207
207
207
207
207
207
207
207
207
207
207
207
207
207
208
208
208
208
208
208
208
208
208
208
208
208
208
208
208
208
208
208
208
208
208
208
208
208
208
208
208
208
208
208
208
208
208
208
208
1
1
1
1
1
1
1
1
1
1
1
1
1
1
1
1
1
1
1
1
1
1
1
1
1
1
1
1
1
1
1
1
1
1
1
1
1
1
1
1
1
1
1
1
1
1
1
1
1
1
1
1
1
1
1
1
1
1
1
1
1
1
1
1
1
1
1
1
1
1
1
1
1
1
1
1
1
1
1
1
1
1
1
1
1
1
1
1
1
1
1
1
1
1
1
1
1
1
1
1
1
1
1
1
1
1
1
1
1
1
1
1
1
1
1
1
1
1
1
1
1
1
1
1
1
1
1
1
1
1
1
1
1
1
1
1
1
1
1
1
1
1
1
1
1
1
1
1
1
1
1
1
1
1
1
1
1
1
1
1

SCALARS EROSION_STATUS int 1
LOOKUP_TABLE default
1
1
1
1
1
1
1
1
1
1
1
1
1
1
1
1
1
1
1
1
1
1
1
1
1
1
1
1
1
1
1
1
1
1
1
1
1
1
1
1
1
1
1
1
1
1
1
1
1
1
1
1
1
1
1
1
1
1
1
1
1
1
1
1
1
1
1
1
1
1
1
1
1
1
1
1
1
1
1
1
1
1
1
1
1
1
1
1
1
1
1
1
1
1
1
1
1
1
0
0
0
0
0
0
0
0
0
0
0
0
1
1
1
1
1
1
1
1
1
1
1
1
1
1
1
1
1
1
1
1
1
1
1
1
1
1
1
1
0
0
0
0
0
0
0
0
0
0
0
0
1
1
1
1
1
1
1
1
1
1
1
1
1
1
1
1
1
1
1
1
1
1
1
1
1
1
1
1
0
0
0
0
0
0
0
0
0
0
0
0
1
1
1
1
1
1
1
1
1
1
1
1
1
1
1
1
1
1
1
1
1
1
1
1
1
1
1
1
0
0
0
0
0
0
0
0
0
0
0
0

SCALARS 1DELEM_Plastic_Strain float 1
LOOKUP_TABLE default
0
0
0
0
0
0
0
0
0
0
0
0
0
0
0
0
0
0
0
0
0
0
0
0
0
0
0
0
0
0
0
0
0
0
0
0
0
0
0
0
0
0
0
0
0
0
0
0
0
0
0
0
0
0
0
0
0
0
0
0
0
0
0
0
0
0
0
0
0
0
0
0
0
0
0
0
0
0
0
0
0
0
0
0
0
0
0
0
0
0
0
0
0
0
0
0
0
0
0
0
0
0
0
0
0
0
0
0
0
0
0
0
0
0
0
0
0
0
0
0
0
0
0
0
0
0
0
0
0
0
0
0
0
0
0
0
0
0
0
0
0
0
0
0
0
0
0
0
0
0
0
0
0
0
0
0
0
0
0
0
0
0
0
0
0
0
0
0
0
0
0
0
0
0
0
0
0
0
0
0
0
0
0
0
0
0
0
0
0
0
0
0
0
0
0
0
0
0
0
0
0
0
0
0
0
0
0
0
0
0
0
0
0
0
0
0
0
0
0
0
0
0
0
0
0
0
0
0
0
0

SCALARS 1DELEM_Von_Mises float 1
LOOKUP_TABLE default
0
0
0
0
0
0
0
0
0
0
0
0
0
0
0
0
0
0
0
0
0
0
0
0
0
0
0
0
0
0
0
0
0
0
0
0
0
0
0
0
0
0
0
0
0
0
0
0
0
0
0
0
0
0
0
0
0
0
0
0
0
0
0
0
0
0
0
0
0
0
0
0
0
0
0
0
0
0
0
0
0
0
0
0
0
0
0
0
0
0
0
0
0
0
0
0
0
0
0
0
0
0
0
0
0
0
0
0
0
0
0
0
0
0
0
0
0
0
0
0
0
0
0
0
0
0
0
0
0
0
0
0
0
0
0
0
0
0
0
0
0
0
0
0
0
0
0
0
0
0
0
0
0
0
0
0
0
0
0
0
0
0
0
0
0
0
0
0
0
0
0
0
0
0
0
0
0
0
0
0
0
0
0
0
0
0
0
0
0
0
0
0
0
0
0
0
0
0
0
0
0
0
0
0
0
0
0
0
0
0
0
0
0
0
0
0
0
0
0
0
0
0
0
0
0
0
0
0
0
0

SCALARS 2DELEM_Plastic_Strain float 1
LOOKUP_TABLE default
0
0
0
0
0
0
0
0
0
0
0
0
0
0
0
0
0
0
0
0
0
0
0
0
0
0
0
0
0
0
0
0
0
0
0
0
0
0
0
0
0
0
0
0
0
0
0
0
0
0
0
0
0
0
0
0
0
0
0
0
0
0
0
0
0
0
0
0
0
0
0
0
0
0
0
0
0
0
0
0
0
0
0
0
0
0
0
0
0
0
0
0
0
0
0
0
0
0
0
0
0
0
0
0
0
0
0
0
0
0
0
0
0
0
0
0
0
0
0
0
0
0
0
0
0
0
0
0
0
0
0
0
0
0
0
0
0
0
0
0
0
0
0
0
0
0
0
0
0
0
5.41718e-06
0
1.61889e-06
0
0
0
0
5.41718e-06
0
1.619e-06
0
0
1.14309e-05
0
3.65675e-06
0
0
1.14309e-05
0
3.65683e-06
1.03412e-05
0
1.04808e-05
0
0
1.03411e-05
0
1.04809e-05
0
0
0
0
0
0
0
0
0
0
0
0
0
4.2585e-06
4.25833e-06
0
0
0
0
0
0
0
0
0
5.65491e-06
0
0
0
0
0
0
5.65497e-06
0
0
0
0
0
0
0
0
0
0
0
0
0
0
0
0
0
0
0
0

SCALARS 2DELEM_Thickness float 1
LOOKUP_TABLE default
0
0
0
0
0
0
0
0
0
0
0
0
0
0
0
0
0
0
0
0
0
0
0
0
0
0
0
0
0
0
0
0
0
0
0
0
0
0
0
0
0
0
0
0
0
0
0
0
0
0
0
0
0
0
0
0
0
0
0
0
0
0
0
0
0
0
0
0
0
0
1.19851
1.19844
1.19867
1.19861
1.19882
1.19885
1.19844
1.19851
1.19861
1.19867
1.19885
1.19882
1.19789
1.19797
1.19814
1.19818
1.19797
1.19789
1.19818
1.19814
1.19798
1.19776
1.198
1.19799
1.19776
1.19798
1.19799
1.198
1.2
1.2
1.2
1.2
1.2
1.2
1.2
1.2
1.2
1.2
1.2
1.2
1.2
1.2
1.2
1.2
1.2
1.2
1.2
1.2
1.2
1.2
1.2
1.2
1.19956
1.19951
1.19994
10000
1.19999
1.2
1.19964
1.19963
1.19991
1.19989
1.19998
1.19999
1.1992
1.19916
1.19915
1.1992
1.2
1.2
1.2
1.2
1.2
1.2
1.2
1.2
1.2
1.2
1.2
1.2
1.19803
1.1981
1.19727
1.19769
1.19746
1.19744
1.1981
1.19803
1.19769
1.19727
1.19744
1.19746
1.19869
1.19836
1.1987
1.1983
1.19836
1.19869
1.1983
1.1987
1.19842
1.1986
1.19858
1.19856
1.1986
1.19842
1.19856
1.19858
1.2
1.2
1.2
1.2
1.2
1.2
1.2
1.2
1.2
1.2
1.2
1.2
1.19785
1.198
1.198
1.19785
1.19852
1.19805
1.19769
1.19829
1.19805
1.19852
1.19829
1.19769
1.19791
1.19767
1.19838
1.19886
1.19835
1.19821
1.19767
1.19791
1.19886
1.19838
1.19821
1.19835
1.19794
1.19836
1.19836
1.19794
1.2
1.2
1.2
1.2
1.2
1.2
1.2
1.2
1.2
1.2
1.2
1.2

SCALARS 2DELEM_Von_Mises float 1
LOOKUP_TABLE default
0
0
0
0
0
0
0
0
0
0
0
0
0
0
0
0
0
0
0
0
0
0
0
0
0
0
0
0
0
0
0
0
0
0
0
0
0
0
0
0
0
0
0
0
0
0
0
0
0
0
0
0
0
0
0
0
0
0
0
0
0
0
0
0
0
0
0
0
0
0
0.0337943
0.0337992
0.026646
0.028813
0.0199096
0.0222331
0.0337991
0.0337942
0.0288104
0.0266452
0.0222064
0.0199003
0.048044
0.042147
0.0423408
0.0382325
0.042147
0.048044
0.0382325
0.0423408
0.0459879
0.0470826
0.0474777
0.0453462
0.0470826
0.0459879
0.0453462
0.0474777
0
0
0
0
0
0
0
0
0
0
0
0
7.85886e-08
7.61443e-08
5.43507e-08
3.7387e-08
1.27816e-05
6.59683e-06
1.07036e-06
5.7923e-07
2.64363e-05
2.10705e-05
1.73787e-06
1.53441e-06
0.00608317
0.00737994
0.0010386
4.53837e-07
0.000116687
4.60446e-06
0.00584255
0.00528034
0.0014901
0.00146482
0.000256431
0.000209849
0.013877
0.0126167
0.0127488
0.0141768
0
0
0
0
0
0
0
0
0
0
0
0
0.0362145
0.0364302
0.044933
0.0456273
0.0464843
0.0496921
0.0364301
0.0362145
0.0456273
0.044933
0.0496921
0.0464842
0.0339541
0.0350891
0.0305181
0.0346227
0.035089
0.0339542
0.0346225
0.030518
0.0361837
0.0361887
0.0372118
0.0342184
0.0361885
0.0361837
0.0342184
0.0372117
0
0
0
0
0
0
0
0
0
0
0
0
0.0377103
0.0392222
0.0392226
0.0377104
0.0243588
0.0284625
0.036404
0.0231989
0.0284628
0.0243591
0.0231983
0.0364039
0.0394844
0.0418869
0.0351545
0.0369799
0.033476
0.0343913
0.0418872
0.0394848
0.0369802
0.0351543
0.0343909
0.0334758
0.0285529
0.025963
0.025963
0.0285527
0
0
0
0
0
0
0
0
0
0
0
0

TENSORS 2DELEM_Stress_(membrane) float
0 0 0
0 0 0
0 0 0
0 0 0
0 0 0
0 0 0
0 0 0
0 0 0
0 0 0
0 0 0
0 0 0
0 0 0
0 0 0
0 0 0
0 0 0
0 0 0
0 0 0
0 0 0
0 0 0
0 0 0
0 0 0
0 0 0
0 0 0
0 0 0
0 0 0
0 0 0
0 0 0
0 0 0
0 0 0
0 0 0
0 0 0
0 0 0
0 0 0
0 0 0
0 0 0
0 0 0
0 0 0
0 0 0
0 0 0
0 0 0
0 0 0
0 0 0
0 0 0
0 0 0
0 0 0
0 0 0
0 0 0
0 0 0
0 0 0
0 0 0
0 0 0
0 0 0
0 0 0
0 0 0
0 0 0
0 0 0
0 0 0
0 0 0
0 0 0
0 0 0
0 0 0
0 0 0
0 0 0
0 0 0
0 0 0
0 0 0
0 0 0
0 0 0
0 0 0
0 0 0
0 0 0
0 0 0
0 0 0
0 0 0
0 0 0
0 0 0
0 0 0
0 0 0
0 0 0
0 0 0
0 0 0
0 0 0
0 0 0
0 0 0
0 0 0
0 0 0
0 0 0
0 0 0
0 0 0
0 0 0
0 0 0
0 0 0
0 0 0
0 0 0
0 0 0
0 0 0
0 0 0
0 0 0
0 0 0
0 0 0
0 0 0
0 0 0
0 0 0
0 0 0
0 0 0
0 0 0
0 0 0
0 0 0
0 0 0
0 0 0
0 0 0
0 0 0
0 0 0
0 0 0
0 0 0
0 0 0
0 0 0
0 0 0
0 0 0
0 0 0
0 0 0
0 0 0
0 0 0
0 0 0
0 0 0
0 0 0
0 0 0
0 0 0
0 0 0
0 0 0
0 0 0
0 0 0
0 0 0
0 0 0
0 0 0
0 0 0
0 0 0
0 0 0
0 0 0
0 0 0
0 0 0
0 0 0
0 0 0
0 0 0
0 0 0
0 0 0
0 0 0
0 0 0
0 0 0
0 0 0
0 0 0
0 0 0
0 0 0
0 0 0
0 0 0
0 0 0
0 0 0
0 0 0
0 0 0
0 0 0
0 0 0
0 0 0
0 0 0
0 0 0
0 0 0
0 0 0
0 0 0
0 0 0
0 0 0
0 0 0
0 0 0
0 0 0
0 0 0
0 0 0
0 0 0
0 0 0
0 0 0
0 0 0
0 0 0
0 0 0
0 0 0
0 0 0
0 0 0
0 0 0
0 0 0
0 0 0
0 0 0
0 0 0
0 0 0
0 0 0
0 0 0
0 0 0
0 0 0
0 0 0
0 0 0
0 0 0
0 0 0
0 0 0
0 0 0
0 0 0
0 0 0
0 0 0
0 0 0
0 0 0
0 0 0
0 0 0
0 0 0
0 0 0
0 0 0
0 0 0
0.0325473 0.000983726 0
0.000983726 -0.00229131 0
0 0 0
0.0330404 0.00155195 0
0.00155195 -0.00126779 0
0 0 0
0.0267607 0.000165235 0
0.000165235 0.000233889 0
0 0 0
0.0285754 0.00090264 0
0.00090264 -0.000386421 0
0 0 0
0.0211435 -0.000143594 0
-0.000143594 0.00275863 0
0 0 0
0.0226273 -0.000106108 0
-0.000106108 0.00081227 0
0 0 0
0.0330402 -0.00155198 0
-0.00155198 -0.00126796 0
0 0 0
0.0325473 -0.000983769 0
-0.000983769 -0.00229116 0
0 0 0
0.0285735 -0.000902903 0
-0.000902903 -0.000385096 0
0 0 0
0.0267589 -0.000166062 0
-0.000166062 0.000232124 0
0 0 0
0.0225912 9.9123e-05 0
9.9123e-05 0.000792067 0
0 0 0
0.0211365 0.000135868 0
0.000135868 0.00276418 0
0 0 0
0.0462755 4.28551e-05 0
4.28551e-05 -0.0033604 0
0 0 0
0.0418479 -0.00133218 0
-0.00133218 -0.000467833 0
0 0 0
0.040766 0.000726572 0
0.000726572 -0.00295702 0
0 0 0
0.037791 0.000928816 0
0.000928816 -0.000802656 0
0 0 0
0.0418479 0.00133216 0
0.00133216 -0.000467828 0
0 0 0
0.0462755 -4.28593e-05 0
-4.28593e-05 -0.00336042 0
0 0 0
0.037791 -0.000928827 0
-0.000928827 -0.000802645 0
0 0 0
0.040766 -0.000726587 0
-0.000726587 -0.00295703 0
0 0 0
0.04424 -0.00123088 0
-0.00123088 -0.0032268 0
0 0 0
0.0466023 -9.11669e-05 0
-9.11669e-05 -0.000945867 0
0 0 0
0.0450618 -0.00139813 0
-0.00139813 -0.00440133 0
0 0 0
0.0437422 -0.00216874 0
-0.00216874 -0.00276897 0
0 0 0
0.0466023 9.12183e-05 0
9.12183e-05 -0.000945889 0
0 0 0
0.04424 0.00123088 0
0.00123088 -0.0032268 0
0 0 0
0.0437422 0.00216874 0
0.00216874 -0.00276898 0
0 0 0
0.0450618 0.00139813 0
0.00139813 -0.00440132 0
0 0 0
0 0 0
0 0 0
0 0 0
0 0 0
0 0 0
0 0 0
0 0 0
0 0 0
0 0 0
0 0 0
0 0 0
0 0 0
0 0 0
0 0 0
0 0 0
0 0 0
0 0 0
0 0 0
0 0 0
0 0 0
0 0 0
0 0 0
0 0 0
0 0 0
0 0 0
0 0 0
0 0 0
0 0 0
0 0 0
0 0 0
0 0 0
0 0 0
0 0 0
0 0 0
0 0 0
0 0 0
2.05861e-08 -5.9058e-09 0
-5.9058e-09 8.61462e-08 0
0 0 0
3.55284e-08 3.47774e-09 0
3.47774e-09 8.71541e-08 0
0 0 0
1.77281e-08 7.95569e-09 0
7.95569e-09 5.91473e-08 0
0 0 0
2.16824e-08 6.79949e-09 0
6.79949e-09 4.09493e-08 0
0 0 0
2.9145e-06 3.10423e-06 0
3.10423e-06 1.27749e-05 0
0 0 0
4.60743e-06 2.57476e-06 0
2.57476e-06 5.08018e-06 0
0 0 0
5.80554e-07 1.87431e-07 0
1.87431e-07 1.17768e-06 0
0 0 0
9.23082e-09 1.11896e-07 0
1.11896e-07 5.504e-07 0
0 0 0
4.35039e-06 2.97191e-07 0
2.97191e-07 2.83366e-05 0
0 0 0
8.6314e-06 2.53564e-06 0
2.53564e-06 2.35199e-05 0
0 0 0
6.20375e-07 -4.05201e-09 0
-4.05201e-09 1.96291e-06 0
0 0 0
4.35294e-07 1.54437e-07 0
1.54437e-07 1.68078e-06 0
0 0 0
0.00211524 0.000506965 0
0.000506965 0.00679157 0
0 0 0
0.00182779 0.000437722 0
0.000437722 0.00808209 0
0 0 0
0.000360724 0.000397289 0
0.000397289 0.000892816 0
0 0 0
3.3537e-08 9.01316e-08 0
9.01316e-08 4.4192e-07 0
0 0 0
6.36979e-05 4.39734e-05 0
4.39734e-05 0.000100928 0
0 0 0
2.13337e-06 6.76988e-07 0
6.76988e-07 -2.98456e-06 0
0 0 0
0.000981151 -0.00020739 0
-0.00020739 0.00625984 0
0 0 0
0.00169788 -7.55924e-05 0
-7.55924e-05 0.00591873 0
0 0 0
0.000305297 -6.45964e-05 0
-6.45964e-05 0.00161483 0
0 0 0
0.000492832 -2.07291e-05 0
-2.07291e-05 0.00164722 0
0 0 0
5.94241e-05 -1.2543e-05 0
-1.2543e-05 0.000279985 0
0 0 0
4.24957e-05 2.61641e-05 0
2.61641e-05 0.000222813 0
0 0 0
0.0145842 0.000524974 0
0.000524974 0.00161592 0
0 0 0
0.0138949 0.000202545 0
0.000202545 0.00317178 0
0 0 0
0.01402 -0.000325242 0
-0.000325242 0.00316352 0
0 0 0
0.0148437 -0.000528502 0
-0.000528502 0.00151507 0
0 0 0
0 0 0
0 0 0
0 0 0
0 0 0
0 0 0
0 0 0
0 0 0
0 0 0
0 0 0
0 0 0
0 0 0
0 0 0
0 0 0
0 0 0
0 0 0
0 0 0
0 0 0
0 0 0
0 0 0
0 0 0
0 0 0
0 0 0
0 0 0
0 0 0
0 0 0
0 0 0
0 0 0
0 0 0
0 0 0
0 0 0
0 0 0
0 0 0
0 0 0
0 0 0
0 0 0
0 0 0
0.0373918 0.00141714 0
0.00141714 0.00266924 0
0 0 0
0.0371381 -0.00118254 0
-0.00118254 0.00158272 0
0 0 0
0.0481614 0.000187287 0
0.000187287 0.00737066 0
0 0 0
0.0460674 0.000514992 0
0.000514992 0.000911428 0
0 0 0
0.0481244 0.000229436 0
0.000229436 0.00347921 0
0 0 0
0.0504101 0.0013104 0
0.0013104 0.00157736 0
0 0 0
0.037138 0.00118249 0
0.00118249 0.00158269 0
0 0 0
0.0373918 -0.00141716 0
-0.00141716 0.00266927 0
0 0 0
0.0460675 -0.000515039 0
-0.000515039 0.000911492 0
0 0 0
0.0481614 -0.000187262 0
-0.000187262 0.00737068 0
0 0 0
0.0504102 -0.00131037 0
-0.00131037 0.00157735 0
0 0 0
0.0481244 -0.000229423 0
-0.000229423 0.0034792 0
0 0 0
0.0311644 0.00208747 0
0.00208747 -0.00470057 0
0 0 0
0.0344457 0.00127104 0
0.00127104 -0.00112162 0
0 0 0
0.0290519 0.000404555 0
0.000404555 -0.00273251 0
0 0 0
0.0345839 -0.000843354 0
-0.000843354 -1.59117e-05 0
0 0 0
0.0344456 -0.00127098 0
-0.00127098 -0.00112154 0
0 0 0
0.0311645 -0.00208754 0
-0.00208754 -0.00470068 0
0 0 0
0.0345837 0.000843308 0
0.000843308 -1.60046e-05 0
0 0 0
0.0290518 -0.000404578 0
-0.000404578 -0.00273257 0
0 0 0
0.0346218 0.00181491 0
0.00181491 -0.00269847 0
0 0 0
0.0333848 0.00186775 0
0.00186775 -0.00483072 0
0 0 0
0.0339515 -0.00301071 0
-0.00301071 -0.00522786 0
0 0 0
0.0315715 0.00568119 0
0.00568119 -0.0022836 0
0 0 0
0.0333846 -0.00186765 0
-0.00186765 -0.00483081 0
0 0 0
0.0346219 -0.00181488 0
-0.00181488 -0.00269841 0
0 0 0
0.0315716 -0.00568104 0
-0.00568104 -0.00228367 0
0 0 0
0.0339514 0.00301071 0
0.00301071 -0.00522778 0
0 0 0
0 0 0
0 0 0
0 0 0
0 0 0
0 0 0
0 0 0
0 0 0
0 0 0
0 0 0
0 0 0
0 0 0
0 0 0
0 0 0
0 0 0
0 0 0
0 0 0
0 0 0
0 0 0
0 0 0
0 0 0
0 0 0
0 0 0
0 0 0
0 0 0
0 0 0
0 0 0
0 0 0
0 0 0
0 0 0
0 0 0
0 0 0
0 0 0
0 0 0
0 0 0
0 0 0
0 0 0
0.0395729 0.000314393 0
0.000314393 0.00406209 0
0 0 0
0.0392925 -0.003831 0
-0.003831 0.00130442 0
0 0 0
0.0392929 0.00383122 0
0.00383122 0.00130459 0
0 0 0
0.039573 -0.000314331 0
-0.000314331 0.00406185 0
0 0 0
0.0254082 0.00380497 0
0.00380497 0.00459635 0
0 0 0
0.0315446 0.00122332 0
0.00122332 0.0080699 0
0 0 0
0.0391615 -0.00336904 0
-0.00336904 0.00770718 0
0 0 0
0.0262073 -0.000785043 0
-0.000785043 0.00849712 0
0 0 0
0.031545 -0.00122354 0
-0.00122354 0.00807024 0
0 0 0
0.0254085 -0.00380488 0
-0.00380488 0.00459634 0
0 0 0
0.0262067 0.000784989 0
0.000784989 0.00849694 0
0 0 0
0.0391615 0.00336891 0
0.00336891 0.00770725 0
0 0 0
0.0404398 0.000193225 0
0.000193225 0.00198894 0
0 0 0
0.0435689 -0.00118477 0
-0.00118477 0.00371203 0
0 0 0
0.0343664 0.0013363 0
0.0013363 -0.00138267 0
0 0 0
0.0318277 -0.000851962 0
-0.000851962 -0.00869475 0
0 0 0
0.0321418 0.00662323 0
0.00662323 0.00143463 0
0 0 0
0.0349903 0.00082447 0
0.00082447 0.00129391 0
0 0 0
0.0435692 0.00118461 0
0.00118461 0.00371188 0
0 0 0
0.0404403 -0.000193424 0
-0.000193424 0.00198906 0
0 0 0
0.0318279 0.000851754 0
0.000851754 -0.00869495 0
0 0 0
0.0343662 -0.00133624 0
-0.00133624 -0.00138272 0
0 0 0
0.03499 -0.000824481 0
-0.000824481 0.001294 0
0 0 0
0.0321417 -0.00662313 0
-0.00662313 0.00143475 0
0 0 0
0.0305807 -0.00567956 0
-0.00567956 0.0111537 0
0 0 0
0.0279051 -0.00245118 0
-0.00245118 0.00546547 0
0 0 0
0.027905 0.00245124 0
0.00245124 0.00546531 0
0 0 0
0.0305804 0.00567973 0
0.00567973 0.0111538 0
0 0 0
0 0 0
0 0 0
0 0 0
0 0 0
0 0 0
0 0 0
0 0 0
0 0 0
0 0 0
0 0 0
0 0 0
0 0 0
0 0 0
0 0 0
0 0 0
0 0 0
0 0 0
0 0 0
0 0 0
0 0 0
0 0 0
0 0 0
0 0 0
0 0 0
0 0 0
0 0 0
0 0 0
0 0 0
0 0 0
0 0 0
0 0 0
0 0 0
0 0 0
0 0 0
0 0 0
0 0 0

