# vtk DataFile Version 3.0
vtk output
ASCII
DATASET UNSTRUCTURED_GRID
FIELD FieldData 2
TIME 1 1 double
70.0077
CYCLE 1 1 int
0
POINTS 612 float
0 0.319978 2.17013
0 0.25598 2.1701
0 0.191986 2.17009
0 0.127989 2.17007
0 0.0639997 2.17005
0 0 2.17005
0 0.320013 2.10514
0 0.256009 2.10518
0 0.192006 2.10524
0 0.128002 2.10526
0 0.0640028 2.1053
0 0 2.1053
0 0.320049 2.04016
0 0.256035 2.04029
0 0.192026 2.04038
0 0.128016 2.0405
0 0.064008 2.04053
0 0 2.04061
0 0.320075 1.97619
0 0.256058 1.97639
0 0.192042 1.9766
0 0.128027 1.97671
0 0.0640133 1.97687
0 0 1.97687
0 0.320102 1.91123
0 0.256078 1.91156
0 0.192057 1.91181
0 0.128037 1.91208
0 0.0640185 1.91217
0 0 1.91232
0 0.320123 1.8463
0 0.256096 1.84674
0 0.192071 1.84717
0 0.128047 1.84742
0 0.0640232 1.84766
0 0 1.84769
0 0.320142 1.78138
0 0.256113 1.78203
0 0.192084 1.78255
0 0.128056 1.78303
0 0.0640277 1.78318
0 0 1.78339
0 0.320163 1.71648
0 0.256128 1.71735
0 0.192096 1.71818
0 0.128064 1.71872
0 0.0640323 1.71912
0 0 1.71926
0 0.320178 1.65259
0 0.256143 1.65383
0 0.192109 1.65489
0 0.128074 1.6558
0 0.0640373 1.65624
0 0 1.6566
0 0.320195 1.58772
0 0.256159 1.58941
0 0.192123 1.59097
0 0.128085 1.59211
0 0.0640434 1.59292
0 0 1.59327
0 0.320205 1.52288
0 0.256173 1.52522
0 0.192138 1.52727
0 0.128099 1.52898
0 0.0640517 1.52998
0 0 1.53062
0 0.320236 1.45807
0 0.256205 1.46124
0 0.192163 1.46411
0 0.12812 1.46629
0 0.0640646 1.46781
0 0 1.46854
0 0.320261 1.39329
0 0.25626 1.39765
0 0.192211 1.40143
0 0.128156 1.40447
0 0.0640863 1.40636
0 0 1.40746
0 0.320438 1.32963
0 0.256369 1.33552
0 0.192302 1.34059
0 0.128227 1.34441
0 0.0641226 1.34701
0 0 1.34828
0 0.321076 1.26549
0 0.256792 1.27329
0 0.192502 1.27976
0 0.128337 1.28473
0 0.0641799 1.2879
0 0 1.28961
0 0.322586 1.2023
0 0.258133 1.2122
0 0.193017 1.22037
0 0.128564 1.22639
0 0.0642835 1.23039
0 0 1.23236
0 0.325374 1.14064
0 0.260662 1.15273
0 0.194436 1.16255
0 0.129158 1.16983
0 0.0644926 1.1745
0 0 1.17691
0 0.329707 1.081
0 0.264418 1.09518
0 0.197418 1.10666
0 0.130569 1.11506
0 0.0650242 1.12055
0 0 1.12324
0 0.33555 1.02457
0 0.269341 1.0407
0 0.201693 1.05358
0 0.133246 1.06316
0 0.0661426 1.06929
0 0 1.07238
0 0.342848 0.969711
0 0.275234 0.987619
0 0.206462 1.00188
0 0.137141 1.01239
0 0.0680873 1.01927
0 0 1.02263
0 0.35115 0.917335
0 0.281707 0.93683
0 0.211419 0.95226
0 0.140754 0.963691
0 0.0701873 0.971147
0 0 0.974868
0 0.360001 0.867348
0 0.28848 0.888188
0 0.216444 0.90471
0 0.144197 0.916918
0 0.0720103 0.924971
0 0 0.928948
0 0.369043 0.819573
0 0.295335 0.841577
0 0.221432 0.859049
0 0.147511 0.872046
0 0.0736925 0.880593
0 0 0.884859
0 0.377906 0.774463
0 0.301999 0.797473
0 0.226226 0.815864
0 0.150642 0.829561
0 0.0752517 0.83863
0 0 0.843122
0 0.386712 0.730307
0 0.308554 0.754327
0 0.230902 0.773623
0 0.153669 0.788051
0 0.0767438 0.797617
0 0 0.802368
0 0.395151 0.687478
0 0.314774 0.712643
0 0.235319 0.732897
0 0.156516 0.748043
0 0.0781415 0.758119
0 0 0.763112
0 0.402999 0.645736
0 0.320549 0.672297
0 0.239419 0.693588
0 0.159159 0.709472
0 0.0794392 0.719946
0 0 0.725086
0 0.410091 0.604975
0 0.325793 0.633218
0 0.243167 0.655616
0 0.16159 0.672134
0 0.080639 0.682918
0 0 0.688217
0 0.416146 0.565751
0 0.330382 0.595977
0 0.246493 0.619474
0 0.163782 0.636535
0 0.0817313 0.647701
0 0 0.65319
0 0.421279 0.527026
0 0.334481 0.559464
0 0.249591 0.584031
0 0.165867 0.601538
0 0.0827792 0.612895
0 0 0.618495
0 0.425494 0.489801
0 0.338154 0.524331
0 0.252494 0.549729
0 0.167874 0.567447
0 0.0837911 0.578969
0 0 0.584723
0 0.429078 0.454481
0 0.341558 0.490672
0 0.255295 0.516453
0 0.169841 0.534375
0 0.0847746 0.546117
0 0 0.552075
0 0.432372 0.421352
0 0.344848 0.458479
0 0.25808 0.484374
0 0.171787 0.502359
0 0.0857427 0.513944
0 0 0.519761
0 0.435611 0.39108
0 0.348195 0.428244
0 0.260859 0.453955
0 0.173756 0.471621
0 0.0867536 0.483019
0 0 0.488505
0 0.439154 0.36269
0 0.351805 0.398975
0 0.263802 0.424108
0 0.17593 0.441096
0 0.0879273 0.451692
0 0 0.457041
0 0.443072 0.336468
0 0.355753 0.371048
0 0.267256 0.394803
0 0.178438 0.410908
0 0.0891862 0.421025
0 0 0.426428
0 0.4475 0.312328
0 0.360307 0.344345
0 0.271131 0.366462
0 0.181152 0.381599
0 0.0905484 0.390955
0 0 0.395499
0 0.452693 0.289888
0 0.365596 0.318532
0 0.275375 0.338966
0 0.184207 0.352679
0 0.0922051 0.361268
0 0 0.365258
0 0.458994 0.268828
0 0.280671 0.311817
0 0.187817 0.324199
0 0.0940509 0.331982
0 0 0.335543
0 0.46703 0.248728
0 0.379436 0.269231
0 0.286701 0.285091
0 0.191799 0.296056
0 0.0960485 0.302998
0 0 0.306179
0 0.477227 0.229408
0 0.388384 0.24553
0 0.293425 0.258829
0 0.196157 0.26833
0 0.0981712 0.274391
0 0 0.277249
0 0.489944 0.210983
0 0.398502 0.222422
0 0.300689 0.233047
0 0.20073 0.241004
0 0.100351 0.24619
0 0 0.24869
0 0.505772 0.193283
0 0.409813 0.199783
0 0.308278 0.207635
0 0.20535 0.214008
0 0.102535 0.218315
0 0 0.22044
0 0.524684 0.175899
0 0.422187 0.177367
0 0.316064 0.182423
0 0.209923 0.187234
0 0.10466 0.190688
0 0 0.192443
0 0.546456 0.158291
0 0.435341 0.154838
0 0.323846 0.157235
0 0.214341 0.160586
0 0.106679 0.163243
0 0 0.164648
0 0.570884 0.139841
0 0.448842 0.131841
0 0.331371 0.131897
0 0.218477 0.133976
0 0.10854 0.135924
0 0 0.137009
0 0.597912 0.120025
0 0.462131 0.108002
0 0.338343 0.10627
0 0.2222 0.107339
0 0.110191 0.108686
0 0 0.109487
0 0.627536 0.0979778
0 0.474496 0.0829959
0 0.34445 0.0802539
0 0.225374 0.0806282
0 0.111583 0.0814943
0 0 0.0820501
0 0.659022 0.0718645
0 0 0.027327
0 0.703803 0
0 0.371749 0.293593
0 0.113797 0
0 0 0
0 0.35463 0
0 0.496971 0
0 0.230497 0
0 0 0.0546708
0 0.689506 0.0397669
0 0.485081 0.0565832
0 0.349378 0.0538221
0 0.22788 0.0538259
0 0.112671 0.0543242
0 0.352844 0.027026
0 0.229612 0.0269396
0 0.492894 0.0287905
0 0.113417 0.0271617
0 0.255979 2.1702
0 0.319978 2.17022
0 0.127989 2.17016
0 0.191986 2.17018
0 0 2.17015
0 0.0639997 2.17014
0 0.256009 2.10528
0 0.320013 2.10523
0 0.128002 2.10535
0 0.192006 2.10533
0 0 2.10539
0 0.0640028 2.10539
0 0.256035 2.04038
0 0.320049 2.04025
0 0.128016 2.04059
0 0.192026 2.04047
0 0 2.0407
0 0.064008 2.04062
0 0.256058 1.97648
0 0.320075 1.97628
0 0.128027 1.97681
0 0.192042 1.9767
0 0 1.97697
0 0.0640133 1.97696
0 0.256078 1.91165
0 0.320102 1.91133
0 0.128037 1.91217
0 0.192057 1.9119
0 0 1.91241
0 0.0640185 1.91226
0 0.256096 1.84683
0 0.320123 1.84639
0 0.128047 1.84752
0 0.192071 1.84727
0 0 1.84779
0 0.0640232 1.84775
0 0.256113 1.78212
0 0.320142 1.78147
0 0.128056 1.78312
0 0.192084 1.78264
0 0 1.78348
0 0.0640277 1.78328
0 0.256128 1.71744
0 0.320163 1.71657
0 0.128064 1.71882
0 0.192096 1.71827
0 0 1.71936
0 0.0640323 1.71921
0 0.256143 1.65393
0 0.320178 1.65268
0 0.128074 1.65589
0 0.192109 1.65498
0 0 1.6567
0 0.0640373 1.65634
0 0.256159 1.5895
0 0.320195 1.58782
0 0.128085 1.5922
0 0.192123 1.59106
0 0 1.59337
0 0.0640434 1.59301
0 0.256173 1.52532
0 0.320205 1.52297
0 0.128099 1.52907
0 0.192138 1.52737
0 0 1.53072
0 0.0640517 1.53007
0 0.256205 1.46133
0 0.320236 1.45816
0 0.12812 1.46639
0 0.192162 1.46421
0 0 1.46864
0 0.0640646 1.46791
0 0.25626 1.39775
0 0.320262 1.39338
0 0.128156 1.40456
0 0.192211 1.40153
0 0 1.40756
0 0.0640863 1.40646
0 0.256369 1.33562
0 0.320439 1.32973
0 0.128227 1.34451
0 0.192302 1.34069
0 0 1.34839
0 0.0641227 1.34712
0 0.256794 1.27339
0 0.32108 1.26558
0 0.128337 1.28483
0 0.192502 1.27986
0 0 1.28972
0 0.0641801 1.28801
0 0.258141 1.21231
0 0.322594 1.2024
0 0.128565 1.22649
0 0.19302 1.22048
0 0 1.23247
0 0.064284 1.2305
0 0.260674 1.15284
0 0.325387 1.14075
0 0.129162 1.16994
0 0.194445 1.16266
0 0 1.17703
0 0.0644943 1.17461
0 0.264435 1.09529
0 0.329726 1.08112
0 0.130578 1.11518
0 0.197435 1.10678
0 0 1.12336
0 0.065028 1.12066
0 0.26936 1.04082
0 0.335572 1.0247
0 0.133262 1.06328
0 0.20171 1.0537
0 0 1.0725
0 0.0661496 1.06941
0 0.275253 0.987744
0 0.342873 0.969838
0 0.137155 1.01251
0 0.206477 1.00201
0 0 1.02275
0 0.0680981 1.01939
0 0.281725 0.936958
0 0.351173 0.917466
0 0.140765 0.963816
0 0.211433 0.952387
0 0 0.974992
0 0.0701942 0.971271
0 0.288496 0.888319
0 0.360022 0.867482
0 0.144205 0.917045
0 0.216456 0.904839
0 0 0.929074
0 0.0720153 0.925097
0 0.295348 0.84171
0 0.36906 0.819709
0 0.147518 0.872174
0 0.221442 0.859179
0 0 0.884986
0 0.0736962 0.88072
0 0.302009 0.797608
0 0.377919 0.774603
0 0.150648 0.82969
0 0.226234 0.815995
0 0 0.84325
0 0.0752546 0.838758
0 0.308562 0.754464
0 0.386721 0.730449
0 0.153673 0.78818
0 0.230908 0.773755
0 0 0.802495
0 0.076746 0.797745
0 0.31478 0.71278
0 0.395156 0.687623
0 0.156519 0.748172
0 0.235324 0.733028
0 0 0.763237
0 0.0781431 0.758246
0 0.320553 0.672435
0 0.403002 0.645884
0 0.159161 0.7096
0 0.239423 0.69372
0 0 0.725208
0 0.0794403 0.720069
0 0.325795 0.633356
0 0.410093 0.605125
0 0.161591 0.672259
0 0.243169 0.655746
0 0 0.688337
0 0.0806396 0.683039
0 0.330384 0.596114
0 0.416148 0.565903
0 0.163783 0.636657
0 0.246495 0.619602
0 0 0.653308
0 0.0817317 0.64782
0 0.334483 0.559599
0 0.421282 0.527178
0 0.165867 0.601656
0 0.249592 0.584155
0 0 0.618608
0 0.0827793 0.613009
0 0.338156 0.524463
0 0.425499 0.489952
0 0.167874 0.567561
0 0.252495 0.54985
0 0 0.584835
0 0.0837911 0.57908
0 0.34156 0.490799
0 0.429083 0.454628
0 0.16984 0.534485
0 0.255295 0.516569
0 0 0.552179
0 0.0847741 0.546224
0 0.344849 0.458601
0 0.432377 0.421493
0 0.171786 0.502465
0 0.25808 0.484486
0 0 0.519862
0 0.0857418 0.514046
0 0.348195 0.428359
0 0.435615 0.391213
0 0.173753 0.471722
0 0.260857 0.454061
0 0 0.488599
0 0.0867519 0.483117
0 0.351803 0.399083
0 0.439158 0.362813
0 0.175926 0.441192
0 0.263798 0.424209
0 0 0.457131
0 0.0879247 0.451785
0 0.355748 0.371148
0 0.443074 0.33658
0 0.178432 0.410999
0 0.267249 0.394898
0 0 0.426515
0 0.0891827 0.421115
0 0.360298 0.344438
0 0.447499 0.312427
0 0.181144 0.381685
0 0.27112 0.366551
0 0 0.395583
0 0.0905436 0.391042
0 0.365582 0.318618
0 0.452688 0.289975
0 0.184195 0.352761
0 0.27536 0.339049
0 0 0.365341
0 0.0921985 0.361352
0 0.28065 0.311893
0 0.458982 0.268903
0 0.0940431 0.332057
[...]
POINT_DATA 612
SCALARS NODE_ID int 1
LOOKUP_TABLE default
919
920
921
922
923
924
925
926
927
928
929
930
931
932
933
934
935
936
937
938
939
940
941
942
943
944
945
946
947
948
949
950
951
952
953
954
955
956
957
958
959
960
961
962
963
964
965
966
967
968
969
970
971
972
973
974
975
976
977
978
979
980
981
982
983
984
985
986
987
988
989
990
991
992
993
994
995
996
997
998
999
1000
1001
1002
1003
1004
1005
1006
1007
1008
1009
1010
1011
1012
1013
1014
1015
1016
1017
1018
1019
1020
1021
1022
1023
1024
1025
1026
1027
1028
1029
1030
1031
1032
1033
1034
1035
1036
1037
1038
1039
1040
1041
1042
1043
1044
1045
1046
1047
1048
1049
1050
1051
1052
1053
1054
1055
1056
1057
1058
1059
1060
1061
1062
1063
1064
1065
1066
1067
1068
1069
1070
1071
1072
1073
1074
1075
1076
1077
1078
1079
1080
1081
1082
1083
1084
1085
1086
1087
1088
1089
1090
1091
1092
1093
1094
1095
1096
1097
1098
1099
1100
1101
1102
1103
1104
1105
1106
1107
1108
1109
1110
1111
1112
1113
1114
1115
1116
1117
1118
1119
1120
1121
1122
1123
1124
1125
1126
1127
1128
1129
1130
1131
1132
1133
1134
1135
1136
1137
1138
1139
1140
1141
1142
1143
1144
1145
1146
1147
1148
1149
1150
1151
1152
1153
1154
1155
1156
1157
1158
1159
1160
1161
1162
1163
1164
1165
1166
1167
1168
1169
1170
1171
1172
1173
1174
1175
1176
1177
1178
1179
1180
1181
1182
1183
1184
1185
1186
1187
1188
1189
1190
1191
1192
1193
1194
1195
1196
1197
1198
1199
1200
1201
1202
1203
1204
1205
1206
1207
1208
1209
1210
1211
1212
1213
1214
1215
1216
1217
1218
1219
1220
1221
1222
1223
1224
1225
1226
1227
1228
1229
1230
1231
1232
1233
1234
1235
1236
1237
1238
1239
1240
1241
1242
1243
1244
1245
1246
1247
1248
1249
1250
1251
1252
1253
1254
1255
1256
1257
1258
1259
1260
1261
1262
1263
1264
1265
1266
1267
1268
1269
1270
1271
1272
1273
1274
1275
1276
1277
1278
1279
1280
1281
1282
1283
1284
1285
1286
1287
1288
1289
1290
1291
1292
1293
1294
1295
1296
1297
1298
1299
1300
1301
1302
1303
1304
1305
1306
1307
1308
1309
1310
1311
1312
1313
1314
1315
1316
1317
1318
1319
1320
1321
1322
1323
1324
1325
1326
1327
1328
1329
1330
1331
1332
1333
1334
1335
1336
1337
1338
1339
1340
1341
1342
1343
1344
1345
1346
1347
1348
1349
1350
1351
1352
1353
1354
1355
1356
1357
1358
1359
1360
1361
1362
1363
1364
1365
1366
1367
1368
1369
1370
1371
1372
1373
1374
1375
1376
1377
1378
1379
1380
1381
1382
1383
1384
1385
1386
1387
1388
1389
1390
1391
1392
1393
1394
1395
1396
1397
1398
1399
1400
1401
1402
1403
1404
1405
1406
1407
1408
1409
1410
1411
1412
1413
1414
1415
1416
1417
1418
1419
1420
1421
1422
1423
1424
1425
1426
1427
1428
1429
1430
1431
1432
1433
1434
1435
1436
1437
1438
1439
1440
1441
1442
1443
1444
1445
1446
1447
1448
1449
1450
1451
1452
1453
1454
1455
1456
1457
1458
1459
1460
1461
1462
1463
1464
1465
1466
1467
1468
1469
1470
1471
1472
1473
1474
1475
1476
1477
1478
1479
1480
1481
1482
1483
1484
1485
1486
1487
1488
1489
1490
1491
1492
1493
1494
1495
1496
1497
1498
1499
1500
1501
1502
1503
1504
1505
1506
1507
1508
1509
1510
1511
1512
1513
1514
1515
1516
1517
1518
1519
1520
1521
1522
1523
1524
1525
1526
1527
1528
1529
1530

CELL_DATA 500
SCALARS ELEMENT_ID int 1
LOOKUP_TABLE default
751
752
753
754
755
756
757
758
759
760
761
762
763
764
765
766
767
768
769
770
771
772
773
774
775
776
777
778
779
780
781
782
783
784
785
786
787
788
789
790
791
792
793
794
795
796
797
798
799
800
801
802
803
804
805
806
807
808
809
810
811
812
813
814
815
816
817
818
819
820
821
822
823
824
825
826
827
828
829
830
831
832
833
834
835
836
837
838
839
840
841
842
843
844
845
846
847
848
849
850
851
852
853
854
855
856
857
858
859
860
861
862
863
864
865
866
867
868
869
870
871
872
873
874
875
876
877
878
879
880
881
882
883
884
885
886
887
888
889
890
891
892
893
894
895
896
897
898
899
900
901
902
903
904
905
906
907
908
909
910
911
912
913
914
915
916
917
918
919
920
921
922
923
924
925
926
927
928
929
930
931
932
933
934
935
936
937
938
939
940
941
942
943
944
945
946
947
948
949
950
951
952
953
954
955
956
957
958
959
960
961
962
963
964
965
966
967
968
969
970
971
972
973
974
975
976
977
978
979
980
981
982
983
984
985
986
987
988
989
990
991
992
993
994
995
996
997
998
999
1000
1094
1095
1096
1097
1098
1099
1100
1101
1102
1103
1104
1105
1106
1107
1108
1109
1110
1111
1112
1113
1114
1115
1116
1118
1119
1120
1121
1122
1123
1124
1126
1127
1128
1129
1130
1131
1133
1134
1135
1136
1137
1138
1139
1140
1141
1142
1143
1144
1145
1147
1148
1149
1151
1152
1153
1154
1156
1157
1158
1159
1160
1162
1164
1165
1166
1168
1170
1171
1172
1174
1175
1176
1177
1178
1179
1180
1182
1183
1184
1185
1186
1187
1188
1189
1190
1191
1192
1193
1195
1196
1197
1198
1199
1200
1202
1203
1204
1205
1207
1208
1210
1211
1214
1215
1216
1218
1221
1222
1224
1225
1227
1228
1229
1230
1231
1233
1234
1235
1236
1241
1242
1243
1246
1247
1249
1001
1002
1003
1004
1005
1006
1007
1008
1009
1010
1011
1012
1013
1014
1015
1016
1017
1018
1019
1020
1021
1022
1023
1024
1025
1026
1027
1028
1029
1030
1031
1032
1033
1034
1035
1036
1037
1038
1039
1040
1041
1042
1043
1044
1045
1046
1047
1048
1049
1050
1051
1052
1053
1054
1055
1056
1057
1058
1059
1060
1061
1062
1063
1064
1065
1066
1067
1068
1069
1070
1071
1072
1073
1074
1075
1076
1077
1078
1079
1080
1081
1082
1083
1084
1085
1086
1087
1088
1089
1090
1091
1092
1093
1117
1125
1132
1146
1150
1155
1161
1163
1167
1169
1173
1181
1194
1201
1206
1209
1212
1213
1217
1219
1220
1223
1226
1232
1237
1238
1239
1240
1244
1245
1248
1250

SCALARS PART_ID int 1
LOOKUP_TABLE default
4
4
4
4
4
4
4
4
4
4
4
4
4
4
4
4
4
4
4
4
4
4
4
4
4
4
4
4
4
4
4
4
4
4
4
4
4
4
4
4
4
4
4
4
4
4
4
4
4
4
4
4
4
4
4
4
4
4
4
4
4
4
4
4
4
4
4
4
4
4
4
4
4
4
4
4
4
4
4
4
4
4
4
4
4
4
4
4
4
4
4
4
4
4
4
4
4
4
4
4
4
4
4
4
4
4
4
4
4
4
4
4
4
4
4
4
4
4
4
4
4
4
4
4
4
4
4
4
4
4
4
4
4
4
4
4
4
4
4
4
4
4
4
4
4
4
4
4
4
4
4
4
4
4
4
4
4
4
4
4
4
4
4
4
4
4
4
4
4
4
4
4
4
4
4
4
4
4
4
4
4
4
4
4
4
4
4
4
4
4
4
4
4
4
4
4
4
4
4
4
4
4
4
4
4
4
4
4
4
4
4
4
4
4
4
4
4
4
4
4
4
4
4
4
4
4
4
4
4
4
4
4
4
4
4
4
4
4
4
4
4
4
4
4
4
4
4
4
4
4
5
5
5
5
5
5
5
5
5
5
5
5
5
5
5
5
5
5
5
5
5
5
5
5
5
5
5
5
5
5
5
5
5
5
5
5
5
5
5
5
5
5
5
5
5
5
5
5
5
5
5
5
5
5
5
5
5
5
5
5
5
5
5
5
5
5
5
5
5
5
5
5
5
5
5
5
5
5
5
5
5
5
5
5
5
5
5
5
5
5
5
5
5
5
5
5
5
5
5
5
5
5
5
5
5
5
5
5
5
5
5
5
5
5
5
5
5
5
5
5
5
5
5
5
5
5
5
5
5
5
5
5
5
5
5
5
5
5
5
5
5
5
5
5
5
5
5
5
5
5
5
5
5
5
5
5
5
5
5
5
5
5
5
5
5
5
5
5
5
5
5
5
5
5
5
5
5
5
5
5
5
5
5
5
5
5
5
5
5
5
5
5
5
5
5
5
5
5
5
5
5
5
5
5
5
5
5
5
5
5
5
5
5
5
5
5
5
5
5
5
5
5
5
5
5
5
5
5
5
5
5
5
5
5
5
5
5
5
5
5
5
5
5
5
5
5
5
5
5
5

SCALARS EROSION_STATUS int 1
LOOKUP_TABLE default
1
1
1
1
1
1
1
1
1
1
1
1
1
1
1
1
1
1
1
1
1
1
1
1
1
1
1
1
1
1
1
1
1
1
1
1
1
1
1
1
1
1
1
1
1
1
1
1
1
1
1
1
1
1
1
1
1
1
1
1
1
1
1
1
1
1
1
1
1
1
1
1
1
1
1
1
1
1
1
1
1
1
1
1
1
1
1
1
1
1
1
1
1
1
1
1
1
1
1
1
1
1
1
1
1
1
1
1
1
1
1
1
1
1
1
1
1
1
1
1
1
1
1
1
1
1
1
1
1
1
1
1
1
1
1
1
1
1
1
1
1
1
1
1
1
1
1
1
1
1
1
1
1
1
1
1
1
1
1
1
1
1
1
1
1
1
1
1
1
1
1
1
1
1
1
1
1
1
1
1
1
1
1
1
1
1
1
1
1
1
1
1
1
1
1
1
1
1
1
1
1
1
1
1
1
1
1
1
1
1
1
1
1
1
1
1
1
1
1
1
1
1
1
1
1
1
1
1
1
1
1
1
1
1
1
1
1
1
1
1
1
1
1
1
1
1
1
1
1
1
1
1
1
1
1
1
1
1
1
1
1
1
1
1
1
1
1
1
1
1
1
1
1
1
1
1
1
1
1
1
1
1
1
1
1
1
1
1
1
1
1
1
1
1
1
1
1
1
1
1
1
1
1
1
1
1
1
1
1
1
1
1
1
1
1
1
1
1
1
1
1
1
1
1
1
1
1
1
1
1
1
1
1
1
1
1
1
1
1
1
1
1
1
1
1
1
1
1
1
1
1
1
1
1
1
1
1
1
1
1
1
1
1
1
1
1
1
1
1
1
1
1
1
1
1
1
1
1
1
1
1
1
1
1
1
1
1
1
1
1
1
1
1
1
1
1
1
1
1
1
1
1
1
1
1
1
1
1
1
1
1
1
1
1
1
1
1
1
1
1
1
1
1
1
1
1
1
1
1
1
1
1
1
1
1
1
1
1
1
1
1
1
1
1
1
1
1
1
1
1
1
1
1
1
1
1
1
1
1
1
1
1
1
1
1
1
1
1
1
1
1
1
1
1
1
1
1
1
1
1
1
1
1
1
1
1
1
1
1
1
1
1
1
1
1
1
1
1
1
1

SCALARS 2DELEM_Plastic_Strain float 1
LOOKUP_TABLE default
3.45843e-14
2.12269e-11
7.52132e-09
7.60753e-07
4.49134e-06
1.71075e-13
1.04731e-10
4.39207e-08
6.20511e-06
8.17978e-05
8.06573e-14
4.11558e-11
1.2304e-08
1.22617e-06
7.04134e-06
9.33042e-14
3.22225e-11
4.40058e-09
1.84759e-07
3.69437e-07
2.7642e-13
1.00914e-10
1.26161e-08
2.3267e-07
1.2737e-08
6.66207e-13
2.98138e-10
5.29302e-08
2.1085e-06
2.62657e-08
9.95907e-13
5.40573e-10
1.45041e-07
2.01518e-05
5.0281e-07
9.94969e-13
3.06795e-10
5.48899e-08
2.24938e-06
8.4795e-08
3.37573e-12
2.23648e-10
1.54773e-08
1.60077e-07
2.35938e-06
5.34339e-11
8.16443e-10
2.28198e-08
6.7323e-07
7.27121e-05
1.01502e-08
4.51185e-09
1.2055e-07
2.89228e-06
0.000317916
2.98018e-06
2.87746e-08
6.57382e-07
5.6109e-06
0.000264935
0.000764324
2.33986e-06
3.12485e-06
9.00409e-05
0.00036046
0.00596582
0.000850259
1.13702e-05
0.000553767
0.000627208
0.0175536
0.00615166
0.00199363
0.00157149
0.000861606
0.0371124
0.0177118
0.00810007
0.00530201
0.00307031
0.0644193
0.0369709
0.0208879
0.0134928
0.00856398
0.0979152
0.0640801
0.0417734
0.0288731
0.0203212
0.136428
0.0984713
0.0710123
0.0533987
0.0413592
0.178723
0.138603
0.107386
0.0865871
0.0721186
0.222914
0.182455
0.149133
0.126573
0.110521
0.26696
0.22805
0.194461
0.17128
0.154182
0.30894
0.273573
0.24079
0.218189
0.20059
0.348315
0.318295
0.288109
0.266642
0.249296
0.384162
0.361582
0.335109
0.315336
0.298785
0.417045
0.402641
0.381054
0.364192
0.348218
0.447874
0.441133
0.42503
0.412248
0.398345
0.477593
0.47665
0.46509
0.457365
0.446706
0.508297
0.509539
0.501598
0.498129
0.492225
0.54214
0.53916
0.532784
0.53205
0.530424
0.581194
0.566669
0.557529
0.556532
0.556641
0.626826
0.59335
0.574861
0.568301
0.565719
0.678145
0.619883
0.585717
0.566686
0.558163
0.733694
0.647968
0.591908
0.553831
0.535054
0.790151
0.676249
0.59555
0.535992
0.498263
0.843054
0.704837
0.599929
0.889298
0.728998
0.601434
0.49514
0.427127
0.919417
0.742438
0.603312
0.485903
0.411668
0.92699
0.750752
0.610871
0.4893
0.413277
0.918453
0.756827
0.62468
0.507336
0.43055
0.900516
0.765995
0.650679
0.540522
0.462219
0.881434
0.787949
0.690964
0.587646
0.508135
0.870041
0.823143
0.744199
0.648944
0.56973
0.865749
0.869776
0.811481
0.726471
0.649887
0.870642
0.929332
0.896752
0.824681
0.754044
0.890937
1.0089
1.008
0.952317
0.891293
0.939965
1.12353
1.53241
1.68534
2.26451
1.73672
1.03624
1.29383
1.37547
1.81381
0.455444
0.513757
1.3714
1.34197
1.18627
1.15976
1.12517
1.07743
2.09682
2.34516
1.73948
1.34175
3.39887e-14
2.08684e-11
7.3951e-09
7.48398e-07
4.49067e-06
1.68135e-13
1.02972e-10
4.31957e-08
6.10677e-06
8.1796e-05
7.92578e-14
4.0448e-11
1.20977e-08
1.2063e-06
7.04064e-06
9.17653e-14
3.16991e-11
4.32853e-09
1.81733e-07
3.69389e-07
2.72106e-13
9.93373e-11
1.24192e-08
2.29028e-07
1.27164e-08
6.55939e-13
2.9351e-10
5.21111e-08
2.0759e-06
2.58544e-08
9.81337e-13
5.32241e-10
1.42807e-07
1.98429e-05
4.94997e-07
9.87049e-13
5.4051e-08
2.21531e-06
8.41969e-08
3.38587e-12
2.22302e-10
3.02346e-10
1.52875e-08
1.5812e-07
2.36035e-06
5.42976e-11
8.17121e-10
2.27814e-08
6.73463e-07
7.27585e-05
1.0398e-08
4.52038e-09
1.20496e-07
2.89498e-06
0.000318267
3.04498e-06
2.89278e-08
6.57133e-07
5.61108e-06
0.00026531
0.000776441
2.37552e-06
3.1242e-06
9.0006e-05
0.000360861
0.00600175
0.000862211
1.13731e-05
0.000553645
0.000627884
0.0176253
0.00618482
0.00200931
0.00158115
0.000862446
0.037226
0.0177837
0.0081429
0.00308961
0.0645725
0.03709
0.00532847
0.0209754
0.0135523
0.00860997
0.0981018
0.0642459
0.0419146
0.0289846
0.0204133
0.136645
0.0986805
0.0712036
0.0535703
0.0415152
0.138848
0.178967
0.107624
0.0868137
0.0723391
0.223184
0.182729
0.149406
0.126846
0.110794
0.267255
0.228347
0.194761
0.171585
0.154492
0.309259
0.27389
0.241109
0.200922
0.34866
0.318629
0.288439
0.266975
0.249635
0.384531
0.361932
0.335453
0.218514
0.31567
0.299114
0.498839
0.891972
0.726994
0.627233
0.558677
0.592414
0.489791
1.37621
0.790537
0.456013
1.81449
0.535619
0.901387
0.462692
0.676721
0.413739
0.536537
0.596063
0.952941
0.940449
0.498515
0.757431
1.12411
0.403006
1.53309
1.68619
2.26547
0.381404
0.651184
0.492599
0.36453
0.919264
0.882245
0.348546
0.788481
0.448278
0.870774
0.540987
0.542554
0.441512
0.870275
0.507806
0.533213
0.554362
0.508628
0.811969
0.649439
0.823647
0.425392
0.744683
0.871232
0.691454
0.457726
0.678543
0.412597
0.465465
0.57025
0.825244
1.03669
1.74053
2.34619
0.588121
0.929843
1.00944
0.866406
0.532469
0.897262
0.398679
0.650445
1.00856
1.29446
0.593809
0.754654
0.581607
0.567199
0.62521
0.447055
1.3422
0.530835
0.843459
1.0782
1.12588
0.60045
0.611406
0.431012
0.729508
1.1604
1.18672
2.09765
1.7377
0.889744
1.34288
1.37224
0.705315
0.891467
0.539595
0.586209
0.620346
0.734079
0.919956
0.566208
0.412155
0.568785
0.575338
0.477046
0.514305
0.557987
0.427655
0.567118
0.495679
0.603852
0.508712
0.556981
0.557068
0.509954
0.501997
0.601978
0.478004
0.751338
0.742993
0.486417
0.766569
0.648432
0.417433
0.927668

SCALARS 2DELEM_Specific_Energy float 1
LOOKUP_TABLE default
9.00934e-09
2.85153e-08
4.76811e-08
1.09352e-07
2.44699e-07
2.47826e-08
6.36332e-08
1.19795e-07
2.02572e-07
3.35268e-07
4.96426e-08
1.03122e-07
1.81551e-07
2.70507e-07
3.9012e-07
7.70591e-08
1.43125e-07
2.37171e-07
3.50886e-07
4.75704e-07
1.07065e-07
1.7341e-07
2.85263e-07
3.95886e-07
5.51606e-07
1.35932e-07
2.05827e-07
3.0615e-07
4.21491e-07
5.06511e-07
1.74287e-07
2.3405e-07
3.35263e-07
4.12418e-07
5.35827e-07
2.19157e-07
2.81382e-07
3.58028e-07
4.36407e-07
5.15419e-07
2.87798e-07
3.29712e-07
4.02837e-07
4.3902e-07
5.68588e-07
3.69291e-07
4.0009e-07
4.29622e-07
4.69645e-07
5.41746e-07
4.89297e-07
4.67894e-07
4.79606e-07
4.80465e-07
6.84075e-07
6.32297e-07
5.4472e-07
5.3851e-07
5.4568e-07
6.57198e-07
1.15513e-06
6.50941e-07
6.43305e-07
6.42492e-07
7.72161e-07
3.53399e-06
1.21251e-06
8.41261e-07
1.00811e-06
1.02803e-06
8.75269e-06
3.6297e-06
1.81647e-06
1.7003e-06
1.44846e-06
1.75632e-05
8.85478e-06
4.592e-06
3.40597e-06
2.55849e-06
2.99348e-05
1.75453e-05
1.04048e-05
7.14747e-06
5.14746e-06
4.52198e-05
2.98694e-05
1.98753e-05
1.41899e-05
1.0491e-05
6.29655e-05
4.56064e-05
3.32329e-05
2.53478e-05
2.02044e-05
8.26588e-05
6.41488e-05
4.99285e-05
4.05846e-05
3.41807e-05
0.000103468
8.45947e-05
6.92823e-05
5.90052e-05
5.19417e-05
0.000124437
0.000106084
9.04642e-05
7.9837e-05
7.21377e-05
0.000144637
0.000127761
0.00011235
0.000101863
9.39453e-05
0.000163767
0.000149294
0.000134926
0.00012488
0.000116979
0.000181341
0.00017035
0.000157613
0.000148243
0.000140684
0.000197587
0.000190521
0.000180033
0.000171968
0.0001646
0.000212928
0.000209604
0.000201723
0.000195573
0.000189146
0.000227815
0.000227362
0.000221669
0.000217977
0.00021312
0.000243297
0.000243934
0.000239987
0.000238357
0.000235891
0.000260486
0.000258972
0.000255712
0.000255411
0.000255148
0.000280484
0.000273038
0.000268256
0.00026776
0.000268416
0.00030408
0.000286779
0.000277056
0.000273694
0.000272994
0.000330901
0.000300533
0.000282595
0.000272823
0.000269118
0.000360264
0.000315167
0.000285803
0.000266248
0.00025735
0.000390457
0.000330009
0.000287731
0.000257195
0.000238845
0.00041906
0.000345133
0.00029004
0.000444303
0.000358032
0.000290903
0.000236731
0.000203584
0.000460878
0.0003653
0.000291974
0.000232278
0.000196251
0.000465094
0.000369839
0.000296021
0.000234213
0.000197369
0.000460453
0.000373235
0.000303345
0.000243575
0.000206328
0.00045069
0.000378228
0.000317014
0.000260714
0.000222579
0.000440267
0.000390002
0.000338307
0.000285194
0.000246175
0.000433944
0.000409021
0.000366779
0.000317385
0.000278117
0.000431534
0.000434545
0.000403296
0.000358732
0.000320294
0.000434312
0.000467648
0.00045044
0.000412192
0.00037624
0.000445904
0.000512792
0.000513432
0.000483547
0.000452023
0.000474172
0.00057961
0.000833081
0.000932144
0.00133682
0.000968332
0.000530594
0.00068236
0.000733419
0.00102874
0.000217543
0.000246008
0.000733008
0.000717932
0.000621266
0.000602112
0.00058364
0.000558643
0.0012175
0.00139951
0.000973777
0.000734065
9.00892e-09
2.85104e-08
4.76701e-08
1.09322e-07
2.44654e-07
2.47839e-08
6.36234e-08
1.19766e-07
2.02476e-07
3.35163e-07
4.96433e-08
1.03107e-07
1.81516e-07
2.70427e-07
3.90004e-07
7.70507e-08
1.43122e-07
2.37144e-07
3.50814e-07
4.75597e-07
1.07053e-07
1.73406e-07
2.85239e-07
3.95829e-07
5.51494e-07
1.35928e-07
2.05816e-07
3.06124e-07
4.21447e-07
5.0648e-07
1.743e-07
2.34024e-07
3.35223e-07
4.12282e-07
5.35811e-07
2.19222e-07
3.57982e-07
4.36339e-07
5.15377e-07
2.87959e-07
3.29808e-07
2.81367e-07
4.02833e-07
4.3896e-07
5.68445e-07
3.69614e-07
4.00265e-07
4.29671e-07
4.69549e-07
5.41531e-07
4.89666e-07
4.68217e-07
4.79715e-07
4.8037e-07
6.83738e-07
6.33064e-07
5.45034e-07
5.38806e-07
5.45685e-07
6.57048e-07
1.16047e-06
6.51923e-07
6.43533e-07
6.42502e-07
7.72273e-07
3.54822e-06
1.21772e-06
8.42153e-07
1.0085e-06
1.02891e-06
8.77892e-06
3.64254e-06
1.82285e-06
1.70403e-06
1.45048e-06
1.76018e-05
8.88106e-06
4.6085e-06
2.56595e-06
2.99825e-05
1.75865e-05
3.41607e-06
1.04371e-05
7.16979e-06
5.16535e-06
4.52721e-05
2.99231e-05
1.99252e-05
1.42307e-05
1.0526e-05
6.30194e-05
4.56691e-05
3.32963e-05
2.54081e-05
2.02612e-05
6.42154e-05
8.27125e-05
5.00017e-05
4.06593e-05
3.42575e-05
0.00010352
8.46616e-05
6.9359e-05
5.90895e-05
5.20301e-05
0.000124487
0.000106147
9.054e-05
7.99225e-05
7.22308e-05
0.000144686
0.00012782
0.00011242
9.40344e-05
0.000163816
0.000149348
0.000134988
0.000124949
0.000117057
0.000181391
0.000170399
0.000157667
0.000101944
0.000148298
0.000140743
0.000238967
0.000452103
0.000358766
0.000304075
0.000269194
0.000285861
0.000234293
0.000733453
0.000390392
0.000217672
0.00102881
0.000257458
0.00045087
0.000222659
0.000330025
0.000197457
0.00025729
0.000287792
0.000483581
0.000474162
0.000238385
0.0003733
0.000579595
0.000190565
0.000833122
0.000932215
0.0013369
0.000180076
0.000317056
0.000235916
0.000172012
0.000460592
0.000440423
0.000164643
0.000390023
0.000212976
0.000434062
0.000260767
0.00026051
0.000209643
0.000434529
0.000243639
0.00025575
0.000266331
0.000246252
0.000403287
0.000317424
0.000409019
0.00020176
0.000366785
0.000434359
0.000338331
0.000218004
0.000330876
0.000195607
0.0002217
0.000278192
0.000412222
0.000530573
0.000973936
0.0013996
0.000285239
0.000467626
0.00051277
0.000431616
0.000255446
0.000450422
0.000189177
0.000320367
0.000513418
0.000682364
0.000286813
0.000376315
0.000280496
0.000272894
0.000303408
0.000213145
0.000734148
0.00025518
0.00041899
0.000558735
0.000583688
0.000290104
0.000296089
0.000206411
0.000358052
0.000602114
0.000621275
0.00121756
0.000968448
0.000444242
0.000718054
0.000733088
0.000345143
0.000445919
0.000259009
0.000282649
0.00030056
0.000360215
0.000460861
0.000273056
0.000196352
0.000273751
0.000277105
0.000227398
0.00024611
0.000268301
0.000203701
0.000273075
0.000236833
0.000292047
0.000243332
0.000267802
0.000268449
0.000243971
0.00024002
0.000290977
0.000227857
0.000369895
0.000365341
0.00023237
0.000378277
0.000315187
0.000197637
0.000465155

SCALARS 2DELEM_Temperature float 1
LOOKUP_TABLE default
300.002
300.007
300.012
300.029
300.064
300.006
300.016
300.031
300.053
300.088
300.013
300.027
300.047
300.071
300.099
300.019
300.036
300.061
300.09
300.125
300.026
300.044
300.073
300.103
300.136
300.033
300.051
300.078
300.106
300.133
300.042
300.058
300.083
300.106
300.13
300.052
300.068
300.09
300.107
300.135
300.068
300.08
300.098
300.111
300.135
300.086
300.095
300.106
300.114
300.141
300.114
300.112
300.116
300.122
300.166
300.147
300.13
300.135
300.136
300.172
300.279
300.162
300.162
300.168
300.2
300.891
300.308
300.22
300.264
300.269
302.255
300.932
300.472
300.445
300.379
304.567
302.294
301.193
300.888
300.67
307.813
304.572
302.703
301.859
301.327
311.825
307.795
305.176
303.678
302.721
316.48
311.916
308.658
306.588
305.216
321.642
316.768
313.024
310.554
308.882
327.093
322.125
318.084
315.375
313.499
332.584
327.756
323.637
320.822
318.803
337.871
333.44
329.376
326.602
324.504
342.876
339.084
335.304
332.643
330.559
347.473
344.603
341.258
338.784
336.784
351.723
349.888
347.141
345.017
343.077
355.737
354.887
352.83
351.216
349.532
359.633
359.539
358.06
357.096
355.826
363.686
363.879
362.861
362.438
361.793
368.185
367.817
366.982
366.906
366.837
373.42
371.499
370.268
370.141
370.313
379.596
375.095
372.574
371.695
371.512
386.617
378.695
374.025
371.467
370.496
394.304
382.524
374.865
369.745
367.414
402.208
386.406
375.368
367.373
362.566
409.696
390.359
375.971
416.3
393.728
376.194
362.012
353.33
420.633
395.619
376.472
360.846
351.409
421.725
396.79
377.527
361.353
351.702
420.501
397.665
379.441
363.805
354.048