# vtk DataFile Version 3.0
vtk output
ASCII
DATASET UNSTRUCTURED_GRID
FIELD FieldData 2
TIME 1 1 double
0
CYCLE 1 1 int
0
POINTS 306 float
0 0 0
0 0.064 0
0 0.128 0
0 0.192 0
0 0.256 0
0 0.32 0
0 0 0.0648
0 0.064 0.0648
0 0.128 0.0648
0 0.192 0.0648
0 0.256 0.0648
0 0.32 0.0648
0 0 0.1296
0 0.064 0.1296
0 0.128 0.1296
0 0.192 0.1296
0 0.256 0.1296
0 0.32 0.1296
0 0 0.1944
0 0.064 0.1944
0 0.128 0.1944
0 0.192 0.1944
0 0.256 0.1944
0 0.32 0.1944
0 0 0.2592
0 0.064 0.2592
0 0.128 0.2592
0 0.192 0.2592
0 0.256 0.2592
0 0.32 0.2592
0 0 0.324
0 0.064 0.324
0 0.128 0.324
0 0.192 0.324
0 0.256 0.324
0 0.32 0.324
0 0 0.3888
0 0.064 0.3888
0 0.128 0.3888
0 0.192 0.3888
0 0.256 0.3888
0 0.32 0.3888
0 0 0.4536
0 0.064 0.4536
0 0.128 0.4536
0 0.192 0.4536
0 0.256 0.4536
0 0.32 0.4536
0 0 0.5184
0 0.064 0.5184
0 0.128 0.5184
0 0.192 0.5184
0 0.256 0.5184
0 0.32 0.5184
0 0 0.5832
0 0.064 0.5832
0 0.128 0.5832
0 0.192 0.5832
0 0.256 0.5832
0 0.32 0.5832
0 0 0.648
0 0.064 0.648
0 0.128 0.648
0 0.192 0.648
0 0.256 0.648
0 0.32 0.648
0 0 0.7128
0 0.064 0.7128
0 0.128 0.7128
0 0.192 0.7128
0 0.256 0.7128
0 0.32 0.7128
0 0 0.7776
0 0.064 0.7776
0 0.128 0.7776
0 0.192 0.7776
0 0.256 0.7776
0 0.32 0.7776
0 0 0.8424
0 0.064 0.8424
0 0.128 0.8424
0 0.192 0.8424
0 0.256 0.8424
0 0.32 0.8424
0 0 0.9072
0 0.064 0.9072
0 0.128 0.9072
0 0.192 0.9072
0 0.256 0.9072
0 0.32 0.9072
0 0 0.972
0 0.064 0.972
0 0.128 0.972
0 0.192 0.972
0 0.256 0.972
0 0.32 0.972
0 0 1.037
0 0.064 1.037
0 0.128 1.037
0 0.192 1.037
0 0.256 1.037
0 0.32 1.037
0 0 1.102
0 0.064 1.102
0 0.128 1.102
0 0.192 1.102
0 0.256 1.102
0 0.32 1.102
0 0 1.166
0 0.064 1.166
0 0.128 1.166
0 0.192 1.166
0 0.256 1.166
0 0.32 1.166
0 0 1.231
0 0.064 1.231
0 0.128 1.231
0 0.192 1.231
0 0.256 1.231
0 0.32 1.231
0 0 1.296
0 0.064 1.296
0 0.128 1.296
0 0.192 1.296
0 0.256 1.296
0 0.32 1.296
0 0 1.361
0 0.064 1.361
0 0.128 1.361
0 0.192 1.361
0 0.256 1.361
0 0.32 1.361
0 0 1.426
0 0.064 1.426
0 0.128 1.426
0 0.192 1.426
0 0.256 1.426
0 0.32 1.426
0 0 1.49
0 0.064 1.49
0 0.128 1.49
0 0.192 1.49
0 0.256 1.49
0 0.32 1.49
0 0 1.555
0 0.064 1.555
0 0.128 1.555
0 0.192 1.555
0 0.256 1.555
0 0.32 1.555
0 0 1.62
0 0.064 1.62
0 0.128 1.62
0 0.192 1.62
0 0.256 1.62
0 0.32 1.62
0 0 1.685
0 0.064 1.685
0 0.128 1.685
0 0.192 1.685
0 0.256 1.685
0 0.32 1.685
0 0 1.75
0 0.064 1.75
0 0.128 1.75
0 0.192 1.75
0 0.256 1.75
0 0.32 1.75
0 0 1.814
0 0.064 1.814
0 0.128 1.814
0 0.192 1.814
0 0.256 1.814
0 0.32 1.814
0 0 1.879
0 0.064 1.879
0 0.128 1.879
0 0.192 1.879
0 0.256 1.879
0 0.32 1.879
0 0 1.944
0 0.064 1.944
0 0.128 1.944
0 0.192 1.944
0 0.256 1.944
0 0.32 1.944
0 0 2.009
0 0.064 2.009
0 0.128 2.009
0 0.192 2.009
0 0.256 2.009
0 0.32 2.009
0 0 2.074
0 0.064 2.074
0 0.128 2.074
0 0.192 2.074
0 0.256 2.074
0 0.32 2.074
0 0 2.138
0 0.064 2.138
0 0.128 2.138
0 0.192 2.138
0 0.256 2.138
0 0.32 2.138
0 0 2.203
0 0.064 2.203
0 0.128 2.203
0 0.192 2.203
0 0.256 2.203
0 0.32 2.203
0 0 2.268
0 0.064 2.268
0 0.128 2.268
0 0.192 2.268
0 0.256 2.268
0 0.32 2.268
0 0 2.333
0 0.064 2.333
0 0.128 2.333
0 0.192 2.333
0 0.256 2.333
0 0.32 2.333
0 0 2.398
0 0.064 2.398
0 0.128 2.398
0 0.192 2.398
0 0.256 2.398
0 0.32 2.398
0 0 2.462
0 0.064 2.462
0 0.128 2.462
0 0.192 2.462
0 0.256 2.462
0 0.32 2.462
0 0 2.527
0 0.064 2.527
0 0.128 2.527
0 0.192 2.527
0 0.256 2.527
0 0.32 2.527
0 0 2.592
0 0.064 2.592
0 0.128 2.592
0 0.192 2.592
0 0.256 2.592
0 0.32 2.592
0 0 2.657
0 0.064 2.657
0 0.128 2.657
0 0.192 2.657
0 0.256 2.657
0 0.32 2.657
0 0 2.722
0 0.064 2.722
0 0.128 2.722
0 0.192 2.722
0 0.256 2.722
0 0.32 2.722
0 0 2.786
0 0.064 2.786
0 0.128 2.786
0 0.192 2.786
0 0.256 2.786
0 0.32 2.786
0 0 2.851
0 0.064 2.851
0 0.128 2.851
0 0.192 2.851
0 0.256 2.851
0 0.32 2.851
0 0 2.916
0 0.064 2.916
0 0.128 2.916
0 0.192 2.916
0 0.256 2.916
0 0.32 2.916
0 0 2.981
0 0.064 2.981
0 0.128 2.981
0 0.192 2.981
0 0.256 2.981
0 0.32 2.981
0 0 3.046
0 0.064 3.046
0 0.128 3.046
0 0.192 3.046
0 0.256 3.046
0 0.32 3.046
0 0 3.11
0 0.064 3.11
0 0.128 3.11
0 0.192 3.11
0 0.256 3.11
0 0.32 3.11
0 0 3.175
0 0.064 3.175
0 0.128 3.175
0 0.192 3.175
0 0.256 3.175
0 0.32 3.175
0 0 3.24
0 0.064 3.24
0 0.128 3.24
0 0.192 3.24
0 0.256 3.24
0 0.32 3.24

CELLS 250 1250
4 72 73 79 78
4 73 74 80 79
4 74 75 81 80
4 78 79 85 84
4 79 80 86 85
4 80 81 87 86
4 81 82 88 87
4 82 83 89 88
4 84 85 91 90
4 85 86 92 91
4 86 87 93 92
4 87 88 94 93
4 88 89 95 94
4 90 91 97 96
4 91 92 98 97
4 92 93 99 98
4 93 94 100 99
4 94 95 101 100
4 96 97 103 102
4 97 98 104 103
4 98 99 105 104
4 99 100 106 105
4 100 101 107 106
4 102 103 109 108
4 103 104 110 109
4 104 105 111 110
4 105 106 112 111
4 106 107 113 112
4 108 109 115 114
4 109 110 116 115
4 110 111 117 116
4 111 112 118 117
4 112 113 119 118
4 114 115 121 120
4 115 116 122 121
4 116 117 123 122
4 117 118 124 123
4 118 119 125 124
4 120 121 127 126
4 121 122 128 127
4 122 123 129 128
4 123 124 130 129
4 124 125 131 130
4 126 127 133 132
4 127 128 134 133
4 128 129 135 134
4 129 130 136 135
4 130 131 137 136
4 132 133 139 138
4 133 134 140 139
4 134 135 141 140
4 135 136 142 141
4 136 137 143 142
4 138 139 145 144
4 139 140 146 145
4 140 141 147 146
4 141 142 148 147
4 142 143 149 148
4 145 146 152 151
4 146 147 153 152
4 147 148 154 153
4 148 149 155 154
4 154 155 161 160
4 0 1 7 6
4 1 2 8 7
4 2 3 9 8
4 3 4 10 9
4 4 5 11 10
4 6 7 13 12
4 7 8 14 13
4 8 9 15 14
4 9 10 16 15
4 10 11 17 16
4 12 13 19 18
4 13 14 20 19
4 14 15 21 20
4 15 16 22 21
4 16 17 23 22
4 18 19 25 24
4 19 20 26 25
4 20 21 27 26
4 21 22 28 27
4 22 23 29 28
4 24 25 31 30
4 25 26 32 31
4 26 27 33 32
4 27 28 34 33
4 28 29 35 34
4 30 31 37 36
4 31 32 38 37
4 32 33 39 38
4 33 34 40 39
4 34 35 41 40
4 36 37 43 42
4 37 38 44 43
4 38 39 45 44
4 39 40 46 45
4 40 41 47 46
4 42 43 49 48
4 43 44 50 49
4 44 45 51 50
4 45 46 52 51
4 46 47 53 52
4 48 49 55 54
4 49 50 56 55
4 50 51 57 56
4 51 52 58 57
4 52 53 59 58
4 54 55 61 60
4 55 56 62 61
4 56 57 63 62
4 57 58 64 63
4 58 59 65 64
4 60 61 67 66
4 61 62 68 67
4 62 63 69 68
4 63 64 70 69
4 64 65 71 70
4 66 67 73 72
4 67 68 74 73
4 68 69 75 74
4 69 70 76 75
4 70 71 77 76
4 75 76 82 81
4 76 77 83 82
4 222 223 229 228
4 223 224 230 229
4 228 229 235 234
4 229 230 236 235
4 230 231 237 236
4 231 232 238 237
4 232 233 239 238
4 234 235 241 240
4 235 236 242 241
4 236 237 243 242
4 237 238 244 243
4 238 239 245 244
4 240 241 247 246
4 241 242 248 247
4 242 243 249 248
4 243 244 250 249
4 244 245 251 250
4 246 247 253 252
4 247 248 254 253
4 248 249 255 254
4 249 250 256 255
4 250 251 257 256
4 252 253 259 258
4 253 254 260 259
4 254 255 261 260
4 255 256 262 261
4 256 257 263 262
4 258 259 265 264
4 259 260 266 265
4 260 261 267 266
4 261 262 268 267
4 262 263 269 268
4 264 265 271 270
4 265 266 272 271
4 266 267 273 272
4 267 268 274 273
4 268 269 275 274
4 270 271 277 276
4 271 272 278 277
4 272 273 279 278
4 273 274 280 279
4 274 275 281 280
4 276 277 283 282
4 277 278 284 283
4 278 279 285 284
4 279 280 286 285
4 280 281 287 286
4 282 283 289 288
4 283 284 290 289
4 284 285 291 290
4 285 286 292 291
4 286 287 293 292
4 288 289 295 294
4 289 290 296 295
4 290 291 297 296
4 291 292 298 297
4 292 293 299 298
4 294 295 301 300
4 295 296 302 301
4 296 297 303 302
4 297 298 304 303
4 298 299 305 304
4 144 145 151 150
4 150 151 157 156
4 151 152 158 157
4 152 153 159 158
4 153 154 160 159
4 156 157 163 162
4 157 158 164 163
4 158 159 165 164
4 159 160 166 165
4 160 161 167 166
4 162 163 169 168
4 163 164 170 169
4 164 165 171 170
4 165 166 172 171
4 166 167 173 172
4 168 169 175 174
4 169 170 176 175
4 170 171 177 176
4 171 172 178 177
4 172 173 179 178
4 174 175 181 180
4 175 176 182 181
4 176 177 183 182
4 177 178 184 183
4 178 179 185 184
4 180 181 187 186
4 181 182 188 187
4 182 183 189 188
4 183 184 190 189
4 184 185 191 190
4 186 187 193 192
4 187 188 194 193
4 188 189 195 194
4 189 190 196 195
4 190 191 197 196
4 192 193 199 198
4 193 194 200 199
4 194 195 201 200
4 195 196 202 201
4 196 197 203 202
4 198 199 205 204
4 199 200 206 205
4 200 201 207 206
4 201 202 208 207
4 202 203 209 208
4 204 205 211 210
4 205 206 212 211
4 206 207 213 212
4 207 208 214 213
4 208 209 215 214
4 210 211 217 216
4 211 212 218 217
4 212 213 219 218
4 213 214 220 219
4 214 215 221 220
4 216 217 223 222
4 217 218 224 223
4 218 219 225 224
4 219 220 226 225
4 220 221 227 226
4 224 225 231 230
4 225 226 232 231
4 226 227 233 232

CELL_TYPES 250
9
9
9
9
9
9
9
9
9
9
9
9
9
9
9
9
9
9
9
9
9
9
9
9
9
9
9
9
9
9
9
9
9
9
9
9
9
9
9
9
9
9
9
9
9
9
9
9
9
9
9
9
9
9
9
9
9
9
9
9
9
9
9
9
9
9
9
9
9
9
9
9
9
9
9
9
9
9
9
9
9
9
9
9
9
9
9
9
9
9
9
9
9
9
9
9
9
9
9
9
9
9
9
9
9
9
9
9
9
9
9
9
9
9
9
9
9
9
9
9
9
9
9
9
9
9
9
9
9
9
9
9
9
9
9
9
9
9
9
9
9
9
9
9
9
9
9
9
9
9
9
9
9
9
9
9
9
9
9
9
9
9
9
9
9
9
9
9
9
9
9
9
9
9
9
9
9
9
9
9
9
9
9
9
9
9
9
9
9
9
9
9
9
9
9
9
9
9
9
9
9
9
9
9
9
9
9
9
9
9
9
9
9
9
9
9
9
9
9
9
9
9
9
9
9
9
9
9
9
9
9
9
9
9
9
9
9
9
9
9
9
9
9
9
9
9
9
9
9
9

POINT_DATA 306
SCALARS NODE_ID int 1
LOOKUP_TABLE default
1
2
3
4
5
6
7
8
9
10
11
12
13
14
15
16
17
18
19
20
21
22
23
24
25
26
27
28
29
30
31
32
33
34
35
36
37
38
39
40
41
42
43
44
45
46
47
48
49
50
51
52
53
54
55
56
57
58
59
60
61
62
63
64
65
66
67
68
69
70
71
72
73
74
75
76
77
78
79
80
81
82
83
84
85
86
87
88
89
90
91
92
93
94
95
96
97
98
99
100
101
102
103
104
105
106
107
108
109
110
111
112
113
114
115
116
117
118
119
120
121
122
123
124
125
126
127
128
129
130
131
132
133
134
135
136
137
138
139
140
141
142
143
144
145
146
147
148
149
150
151
152
153
154
155
156
157
158
159
160
161
162
163
164
165
166
167
168
169
170
171
172
173
174
175
176
177
178
179
180
181
182
183
184
185
186
187
188
189
190
191
192
193
194
195
196
197
198
199
200
201
202
203
204
205
206
207
208
209
210
211
212
213
214
215
216
217
218
219
220
221
222
223
224
225
226
227
228
229
230
231
232
233
234
235
236
237
238
239
240
241
242
243
244
245
246
247
248
249
250
251
252
253
254
255
256
257
258
259
260
261
262
263
264
265
266
267
268
269
270
271
272
273
274
275
276
277
278
279
280
281
282
283
284
285
286
287
288
289
290
291
292
293
294
295
296
297
298
299
300
301
302
303
304
305
306

CELL_DATA 250
SCALARS ELEMENT_ID int 1
LOOKUP_TABLE default
61
62
63
66
67
68
69
70
71
72
73
74
75
76
77
78
79
80
81
82
83
84
85
86
87
88
89
90
91
92
93
94
95
96
97
98
99
100
101
102
103
104
105
106
107
108
109
110
111
112
113
114
115
116
117
118
119
120
122
123
124
125
130
1
2
3
4
5
6
7
8
9
10
11
12
13
14
15
16
17
18
19
20
21
22
23
24
25
26
27
28
29
30
31
32
33
34
35
36
37
38
39
40
41
42
43
44
45
46
47
48
49
50
51
52
53
54
55
56
57
58
59
60
64
65
186
187
191
192
193
194
195
196
197
198
199
200
201
202
203
204
205
206
207
208
209
210
211
212
213
214
215
216
217
218
219
220
221
222
223
224
225
226
227
228
229
230
231
232
233
234
235
236
237
238
239
240
241
242
243
244
245
246
247
248
249
250
121
126
127
128
129
131
132
133
134
135
136
137
138
139
140
141
142
143
144
145
146
147
148
149
150
151
152
153
154
155
156
157
158
159
160
161
162
163
164
165
166
167
168
169
170
171
172
173
174
175
176
177
178
179
180
181
182
183
184
185
188
189
190

SCALARS PART_ID int 1
LOOKUP_TABLE default
1
1
1
1
1
1
1
1
1
1
1
1
1
1
1
1
1
1
1
1
1
1
1
1
1
1
1
1
1
1
1
1
1
1
1
1
1
1
1
1
1
1
1
1
1
1
1
1
1
1
1
1
1
1
1
1
1
1
1
1
1
1
1
1
1
1
1
1
1
1
1
1
1
1
1
1
1
1
1
1
1
1
1
1
1
1
1
1
1
1
1
1
1
1
1
1
1
1
1
1
1
1
1
1
1
1
1
1
1
1
1
1
1
1
1
1
1
1
1
1
1
1
1
1
1
1
1
1
1
1
1
1
1
1
1
1
1
1
1
1
1
1
1
1
1
1
1
1
1
1
1
1
1
1
1
1
1
1
1
1
1
1
1
1
1
1
1
1
1
1
1
1
1
1
1
1
1
1
1
1
1
1
1
1
1
1
1
1
1
1
1
1
1
1
1
1
1
1
1
1
1
1
1
1
1
1
1
1
1
1
1
1
1
1
1
1
1
1
1
1
1
1
1
1
1
1
1
1
1
1
1
1
1
1
1
1
1
1
1
1
1
1
1
1
1
1
1
1
1
1

SCALARS EROSION_STATUS int 1
LOOKUP_TABLE default
1
1
1
1
1
1
1
1
1
1
1
1
1
1
1
1
1
1
1
1
1
1
1
1
1
1
1
1
1
1
1
1
1
1
1
1
1
1
1
1
1
1
1
1
1
1
1
1
1
1
1
1
1
1
1
1
1
1
1
1
1
1
1
1
1
1
1
1
1
1
1
1
1
1
1
1
1
1
1
1
1
1
1
1
1
1
1
1
1
1
1
1
1
1
1
1
1
1
1
1
1
1
1
1
1
1
1
1
1
1
1
1
1
1
1
1
1
1
1
1
1
1
1
1
1
1
1
1
1
1
1
1
1
1
1
1
1
1
1
1
1
1
1
1
1
1
1
1
1
1
1
1
1
1
1
1
1
1
1
1
1
1
1
1
1
1
1
1
1
1
1
1
1
1
1
1
1
1
1
1
1
1
1
1
1
1
1
1
1
1
1
1
1
1
1
1
1
1
1
1
1
1
1
1
1
1
1
1
1
1
1
1
1
1
1
1
1
1
1
1
1
1
1
1
1
1
1
1
1
1
1
1
1
1
1
1
1
1
1
1
1
1
1
1
1
1
1
1
1
1

SCALARS 2DELEM_Plastic_Strain float 1
LOOKUP_TABLE default
0
0
0
0
0
0
0
0
0
0
0
0
0
0
0
0
0
0
0
0
0
0
0
0
0
0
0
0
0
0
0
0
0
0
0
0
0
0
0
0
0
0
0
0
0
0
0
0
0
0
0
0
0
0
0
0
0
0
0
0
0
0
0
0
0
0
0
0
0
0
0
0
0
0
0
0
0
0
0
0
0
0
0
0
0
0
0
0
0
0
0
0
0
0
0
0
0
0
0
0
0
0
0
0
0
0
0
0
0
0
0
0
0
0
0
0
0
0
0
0
0
0
0
0
0
0
0
0
0
0
0
0
0
0
0
0
0
0
0
0
0
0
0
0
0
0
0
0
0
0
0
0
0
0
0
0
0
0
0
0
0
0
0
0
0
0
0
0
0
0
0
0
0
0
0
0
0
0
0
0
0
0
0
0
0
0
0
0
0
0
0
0
0
0
0
0
0
0
0
0
0
0
0
0
0
0
0
0
0
0
0
0
0
0
0
0
0
0
0
0
0
0
0
0
0
0
0
0
0
0
0
0
0
0
0
0
0
0
0
0
0
0
0
0
0
0
0
0
0
0

SCALARS 2DELEM_Pressure float 1
LOOKUP_TABLE default
0
0
0
0
0
0
-2.88658e-16
0
0
0
0
0
0
0
0
0
0
0
0
0
0
0
0
0
0
0
0
0
0
0
0
0
0
0
0
0
0
0
0
0
0
0
0
0
0
0
0
0
0
0
0
0
0
0
0
0
0
0
0
0
0
0
0
0
0
0
0
0
0
0
0
0
0
0
0
0
0
0
0
0
0
0
0
0
0
0
0
0
0
0
0
0
0
0
0
0
0
0
0
0
0
0
0
0
0
0
0
0
0
0
0
2.88658e-16
0
0
0
0
0
0
0
0
0
0
0
0
0
0
0
0
0
0
0
0
0
0
0
0
0
0
0
0
0
0
0
0
0
0
0
0
0
0
0
0
0
0
0
0
0
0
0
0
0
0
0
0
0
0
0
0
0
0
0
0
0
0
0
0
0
0
0
0
0
0
0
0
0
0
0
0
0
0
0
0
0
0
0
0
0
0
0
0
0
0
0
0
0
0
0
0
0
0
0
0
0
0
0
0
0
0
0
0
0
0
0
0
0
0
0
0
0
0
0
0
0
0
0
0
0
0
0
0
0
0
0
0
0
0
0
0
0
0

