# vtk DataFile Version 3.0
vtk output
ASCII
DATASET UNSTRUCTURED_GRID
FIELD FieldData 2
TIME 1 1 double
0
CYCLE 1 1 int
0
POINTS 154 float
-0.137317 -1.12 0.92388
-0.249402 -0.849402 0.92388
-0.52 -0.737317 0.92388
-0.790597 -0.849402 0.92388
-0.902683 -1.12 0.92388
-0.790597 -1.3906 0.92388
-0.52 -1.50268 0.92388
-0.249402 -1.3906 0.92388
0.31147 -1.12 0.55557
0.0679382 -0.532062 0.55557
-0.52 -0.28853 0.55557
-1.10794 -0.532062 0.55557
-1.35147 -1.12 0.55557
-1.10794 -1.70794 0.55557
-0.52 -1.95147 0.55557
0.0679382 -1.70794 0.55557
0.48 -1.12 -2.32051e-08
0.187107 -0.412893 -2.32051e-08
-0.52 -0.12 -2.32051e-08
-1.22711 -0.412893 -2.32051e-08
-1.52 -1.12 -2.32051e-08
-1.22711 -1.82711 -2.32051e-08
-0.52 -2.12 -2.32051e-08
0.187107 -1.82711 -2.32051e-08
0.31147 -1.12 -0.55557
0.0679382 -0.532062 -0.55557
-0.52 -0.28853 -0.55557
-1.10794 -0.532062 -0.55557
-1.35147 -1.12 -0.55557
-1.10794 -1.70794 -0.55557
-0.52 -1.95147 -0.55557
0.0679382 -1.70794 -0.55557
-0.137317 -1.12 -0.92388
-0.249402 -0.849402 -0.92388
-0.52 -0.737317 -0.92388
-0.790597 -0.849402 -0.92388
-0.902683 -1.12 -0.92388
-0.790597 -1.3906 -0.92388
-0.52 -1.50268 -0.92388
-0.249402 -1.3906 -0.92388
1.1 -4.5 -4.5
1.1 -3.5 -4.5
1.1 -2.5 -4.5
1.1 -1.5 -4.5
1.1 -0.5 -4.5
0.5 -0.1 -4.5
-0.9 0.5 -4.5
-1.9 0.5 -4.5
-2.9 0.5 -4.5
-3.9 0.5 -4.5
1.1 -4.5 -3.5
1.1 -3.5 -3.5
1.1 -2.5 -3.5
1.1 -1.5 -3.5
1.1 -0.5 -3.5
0.5 -0.1 -3.5
-0.9 0.5 -3.5
-1.9 0.5 -3.5
-2.9 0.5 -3.5
-3.9 0.5 -3.5
1.1 -4.5 -2.5
1.1 -3.5 -2.5
1.1 -2.5 -2.5
1.1 -1.5 -2.5
1.1 -0.5 -2.5
0.5 -0.1 -2.5
-0.9 0.5 -2.5
-1.9 0.5 -2.5
-2.9 0.5 -2.5
-3.9 0.5 -2.5
1.1 -4.5 -1.5
1.1 -3.5 -1.5
1.1 -2.5 -1.5
1.1 -1.5 -1.5
1.1 -0.5 -1.5
0.5 -0.1 -1.5
-0.9 0.5 -1.5
-1.9 0.5 -1.5
-2.9 0.5 -1.5
-3.9 0.5 -1.5
1.1 -4.5 -0.5
1.1 -3.5 -0.5
1.1 -2.5 -0.5
1.1 -1.5 -0.5
1.1 -0.5 -0.5
0.5 -0.1 -0.5
-0.9 0.5 -0.5
-1.9 0.5 -0.5
-2.9 0.5 -0.5
-3.9 0.5 -0.5
1.1 -4.5 0.5
1.1 -3.5 0.5
1.1 -2.5 0.5
1.1 -1.5 0.5
1.1 -0.5 0.5
0.5 -0.1 0.5
-0.9 0.5 0.5
-1.9 0.5 0.5
-2.9 0.5 0.5
-3.9 0.5 0.5
1.1 -4.5 1.5
1.1 -3.5 1.5
1.1 -2.5 1.5
1.1 -1.5 1.5
1.1 -0.5 1.5
0.5 -0.1 1.5
-0.9 0.5 1.5
-1.9 0.5 1.5
-2.9 0.5 1.5
-3.9 0.5 1.5
1.1 -4.5 2.5
1.1 -3.5 2.5
1.1 -2.5 2.5
1.1 -1.5 2.5
1.1 -0.5 2.5
0.5 -0.1 2.5
-0.9 0.5 2.5
-1.9 0.5 2.5
-2.9 0.5 2.5
-3.9 0.5 2.5
1.1 -4.5 3.5
1.1 -3.5 3.5
1.1 -2.5 3.5
1.1 -1.5 3.5
1.1 -0.5 3.5
0.5 -0.1 3.5
-0.9 0.5 3.5
-1.9 0.5 3.5
-2.9 0.5 3.5
-3.9 0.5 3.5
1.1 -4.5 4.5
1.1 -3.5 4.5
1.1 -2.5 4.5
1.1 -1.5 4.5
1.1 -0.5 4.5
0.5 -0.1 4.5
-0.9 0.5 4.5
-1.9 0.5 4.5
-2.9 0.5 4.5
-3.9 0.5 4.5
0.123 0.456 0.789
-0.94 -0.94 0
0.123 0.456 0.789
0.123 0.456 0.789
0.123 0.456 0.789
0.123 0.456 0.789
0.123 0.456 0.789
-2.2 -2.2 0
-1.55 -1.55 0
-1.55 -1.55 0
1.04768 -4.14768 -5.19537
-5.22368 2.12368 -3.67368
-4.14768 1.04768 5.19537
2.12368 -5.22368 3.67368

CELLS 115 575
4 1 0 8 9
4 2 1 9 10
4 9 8 16 17
4 10 9 17 18
4 17 16 24 25
4 18 17 25 26
4 25 24 32 33
4 26 25 33 34
4 3 2 10 11
4 4 3 11 12
4 11 10 18 19
4 12 11 19 20
4 19 18 26 27
4 20 19 27 28
4 27 26 34 35
4 28 27 35 36
4 31 30 38 39
4 24 31 39 32
4 7 6 14 15
4 0 7 15 8
4 15 14 22 23
4 8 15 23 16
4 23 22 30 31
4 16 23 31 24
4 29 28 36 37
4 30 29 37 38
4 5 4 12 13
4 6 5 13 14
4 13 12 20 21
4 14 13 21 22
4 21 20 28 29
4 22 21 29 30
4 112 111 121 122
4 114 113 123 124
4 115 114 124 125
4 121 120 130 131
4 123 122 132 133
4 124 123 133 134
4 91 90 100 101
4 92 91 101 102
4 93 92 102 103
4 94 93 103 104
4 101 100 110 111
4 102 101 111 112
4 103 102 112 113
4 104 103 113 114
4 111 110 120 121
4 113 112 122 123
4 122 121 131 132
4 125 124 134 135
4 85 84 94 95
4 95 94 104 105
4 105 104 114 115
4 86 85 95 96
4 87 86 96 97
4 88 87 97 98
4 89 88 98 99
4 96 95 105 106
4 99 98 108 109
4 106 105 115 116
4 107 106 116 117
4 108 107 117 118
4 109 108 118 119
4 116 115 125 126
4 119 118 128 129
4 126 125 135 136
4 128 127 137 138
4 129 128 138 139
4 97 96 106 107
4 98 97 107 108
4 117 116 126 127
4 118 117 127 128
4 127 126 136 137
4 71 70 80 81
4 81 80 90 91
4 82 81 91 92
4 41 40 50 51
4 42 41 51 52
4 43 42 52 53
4 44 43 53 54
4 51 50 60 61
4 52 51 61 62
4 53 52 62 63
4 54 53 63 64
4 61 60 70 71
4 62 61 71 72
4 63 62 72 73
4 72 71 81 82
4 73 72 82 83
4 83 82 92 93
4 84 83 93 94
4 64 63 73 74
4 74 73 83 84
4 47 46 56 57
4 56 55 65 66
4 57 56 66 67
4 58 57 67 68
4 68 67 77 78
4 45 44 54 55
4 46 45 55 56
4 48 47 57 58
4 49 48 58 59
4 55 54 64 65
4 59 58 68 69
4 65 64 74 75
4 66 65 75 76
4 67 66 76 77
4 69 68 78 79
4 75 74 84 85
4 76 75 85 86
4 77 76 86 87
4 78 77 87 88
4 79 78 88 89
4 149 149 149 149
4 150 153 152 151

CELL_TYPES 115
9
9
9
9
9
9
9
9
9
9
9
9
9
9
9
9
9
9
9
9
9
9
9
9
9
9
9
9
9
9
9
9
9
9
9
9
9
9
9
9
9
9
9
9
9
9
9
9
9
9
9
9
9
9
9
9
9
9
9
9
9
9
9
9
9
9
9
9
9
9
9
9
9
9
9
9
9
9
9
9
9
9
9
9
9
9
9
9
9
9
9
9
9
9
9
9
9
9
9
9
9
9
9
9
9
9
9
9
9
9
9
9
9
9
9

POINT_DATA 154
SCALARS NODE_ID int 1
LOOKUP_TABLE default
1000
1001
1002
1003
1004
1005
1006
1007
1008
1009
1010
1011
1012
1013
1014
1015
1016
1017
1018
1019
1020
1021
1022
1023
1024
1025
1026
1027
1028
1029
1030
1031
1032
1033
1034
1035
1036
1037
1038
1039
1040
1041
1042
1043
1044
1045
1046
1047
1048
1049
1050
1051
1052
1053
1054
1055
1056
1057
1058
1059
1060
1061
1062
1063
1064
1065
1066
1067
1068
1069
1070
1071
1072
1073
1074
1075
1076
1077
1078
1079
1080
1081
1082
1083
1084
1085
1086
1087
1088
1089
1090
1091
1092
1093
1094
1095
1096
1097
1098
1099
1100
1101
1102
1103
1104
1105
1106
1107
1108
1109
1110
1111
1112
1113
1114
1115
1116
1117
1118
1119
1120
1121
1122
1123
1124
1125
1126
1127
1128
1129
1130
1131
1132
1133
1134
1135
1136
1137
1138
1139
1140
1141
1142
1143
1144
1145
1146
1147
1148
0
0
0
0
0

CELL_DATA 115
SCALARS ELEMENT_ID int 1
LOOKUP_TABLE default
10000
10001
10008
10009
10016
10017
10024
10025
10002
10003
10010
10011
10018
10019
10026
10027
10030
10031
10006
10007
10014
10015
10022
10023
10028
10029
10004
10005
10012
10013
10020
10021
10096
10098
10099
10104
10106
10107
10077
10078
10079
10080
10086
10087
10088
10089
10095
10097
10105
10108
10072
10081
10090
10073
10074
10075
10076
10082
10085
10091
10092
10093
10094
10100
10103
10109
10111
10112
10083
10084
10101
10102
10110
10059
10068
10069
10032
10033
10034
10035
10041
10042
10043
10044
10050
10051
10052
10060
10061
10070
10071
10053
10062
10038
10046
10047
10048
10057
10036
10037
10039
10040
10045
10049
10054
10055
10056
10058
10063
10064
10065
10066
10067
0
0

SCALARS PART_ID int 1
LOOKUP_TABLE default
1
1
1
1
1
1
1
1
1
1
1
1
1
1
1
1
1
1
1
1
1
1
1
1
1
1
1
1
1
1
1
1
2
2
2
2
2
2
2
2
2
2
2
2
2
2
2
2
2
2
2
2
2
2
2
2
2
2
2
2
2
2
2
2
2
2
2
2
2
2
2
2
2
2
2
2
2
2
2
2
2
2
2
2
2
2
2
2
2
2
2
2
2
2
2
2
2
2
2
2
2
2
2
2
2
2
2
2
2
2
2
2
2
1148
1148

SCALARS EROSION_STATUS int 1
LOOKUP_TABLE default
1
1
1
1
1
1
1
1
1
1
1
1
1
1
1
1
1
1
1
1
1
1
1
1
1
1
1
1
1
1
1
1
1
1
1
1
1
1
1
1
1
1
1
1
1
1
1
1
1
1
1
1
1
1
1
1
1
1
1
1
1
1
1
1
1
1
1
1
1
1
1
1
1
1
1
1
1
1
1
1
1
1
1
1
1
1
1
1
1
1
1
1
1
1
1
1
1
1
1
1
1
1
1
1
1
1
1
1
1
1
1
1
1
1
1

