# vtk DataFile Version 3.0
vtk output
ASCII
DATASET UNSTRUCTURED_GRID
FIELD FieldData 2
TIME 1 1 double
0.500023
CYCLE 1 1 int
0
POINTS 114 float
-0.329419 -3.5926 0.923466
-0.206285 -3.32809 0.924271
-0.302738 -3.05097 0.923767
-0.569325 -2.92768 0.924248
-0.844277 -3.02466 0.923349
-0.969684 -3.29035 0.9245
-0.87045 -3.56567 0.923129
-0.60632 -3.691 0.924415
-0.0293732 -3.92505 0.555874
0.243855 -3.3491 0.555316
0.0276745 -2.7511 0.555746
-0.546129 -2.47784 0.555245
-1.14627 -2.6934 0.555904
-1.41764 -3.26801 0.555239
-1.20337 -3.86741 0.555853
-0.627528 -4.13938 0.555279
0.08504 -4.04954 -2.41185e-08
0.410869 -3.35813 -2.62152e-08
0.153577 -2.63676 -2.65764e-08
-0.539131 -2.31063 -2.49203e-08
-1.25876 -2.56758 -2.23209e-08
-1.58627 -3.26036 -2.01877e-08
-1.32799 -3.98065 -1.98782e-08
-0.636521 -4.30767 -2.147e-08
-0.0293732 -3.92505 -0.555874
0.243855 -3.3491 -0.555316
0.0276745 -2.7511 -0.555746
-0.546129 -2.47784 -0.555245
-1.14627 -2.6934 -0.555904
-1.41764 -3.26801 -0.555239
-1.20337 -3.86741 -0.555853
-0.627528 -4.13938 -0.555279
-0.329419 -3.5926 -0.923466
-0.206285 -3.32809 -0.924271
-0.302738 -3.05097 -0.923767
-0.569325 -2.92768 -0.924248
-0.844277 -3.02466 -0.923349
-0.969684 -3.29035 -0.9245
-0.87045 -3.56567 -0.923129
-0.60632 -3.691 -0.924415
0.205376 -7.05811 -2.5
1.04685 -6.51781 -2.5
1.88832 -5.97751 -2.5
2.72979 -5.43721 -2.5
2.1 -3.43759 -2.5
0.5 -1.03759 -2.5
-0.9 -0.437587 -2.5
-1.9 -0.437587 -2.5
-2.9 -0.437587 -2.5
-3.9 -0.437587 -2.5
0.205376 -7.05811 -1.5
1.04685 -6.51781 -1.5
1.88832 -5.97751 -1.5
2.72979 -5.43721 -1.5
2.1 -3.43759 -1.5
0.5 -1.03759 -1.5
-0.9 -0.437587 -1.5
-1.9 -0.437587 -1.5
-2.9 -0.437587 -1.5
-3.9 -0.437587 -1.5
0.205376 -7.05811 -0.5
1.04685 -6.51781 -0.5
1.88832 -5.97751 -0.5
2.72979 -5.43721 -0.5
2.1 -3.43759 -0.5
0.5 -1.03759 -0.5
-0.9 -0.437587 -0.5
-1.9 -0.437587 -0.5
-2.9 -0.437587 -0.5
-3.9 -0.437587 -0.5
0.205376 -7.05811 0.5
1.04685 -6.51781 0.5
1.88832 -5.97751 0.5
2.72979 -5.43721 0.5
2.1 -3.43759 0.5
0.5 -1.03759 0.5
-0.9 -0.437587 0.5
-1.9 -0.437587 0.5
-2.9 -0.437587 0.5
-3.9 -0.437587 0.5
0.205376 -7.05811 1.5
1.04685 -6.51781 1.5
1.88832 -5.97751 1.5
2.72979 -5.43721 1.5
2.1 -3.43759 1.5
0.5 -1.03759 1.5
-0.9 -0.437587 1.5
-1.9 -0.437587 1.5
-2.9 -0.437587 1.5
-3.9 -0.437587 1.5
0.205376 -7.05811 2.5
1.04685 -6.51781 2.5
1.88832 -5.97751 2.5
2.72979 -5.43721 2.5
2.1 -3.43759 2.5
0.5 -1.03759 2.5
-0.9 -0.437587 2.5
-1.9 -0.437587 2.5
-2.9 -0.437587 2.5
-3.9 -0.437587 2.5
0.123 0.456 0.789
-0.94 -0.94 0
0.123 0.456 0.789
0.123 0.456 0.789
0.123 0.456 0.789
0.123 0.456 0.789
0.123 0.456 0.789
-2.2 -2.2 0
-2.67457 -2.67457 0
-2.67457 -2.67457 0
-0.556346 -4.79279 -4.23644
-5.67018 0.321049 -2.99562
-4.79279 -0.556346 4.23644
0.321049 -5.67018 2.99562

CELLS 74 370
4 23 22 30 31
4 31 30 38 39
4 17 16 24 25
4 18 17 25 26
4 16 23 31 24
4 25 24 32 33
4 26 25 33 34
4 24 31 39 32
4 1 0 8 9
4 2 1 9 10
4 7 6 14 15
4 0 7 15 8
4 9 8 16 17
4 10 9 17 18
4 15 14 22 23
4 8 15 23 16
4 3 2 10 11
4 4 3 11 12
4 11 10 18 19
4 12 11 19 20
4 19 18 26 27
4 20 19 27 28
4 27 26 34 35
4 28 27 35 36
4 5 4 12 13
4 6 5 13 14
4 13 12 20 21
4 14 13 21 22
4 21 20 28 29
4 22 21 29 30
4 29 28 36 37
4 30 29 37 38
4 48 47 57 58
4 49 48 58 59
4 58 57 67 68
4 59 58 68 69
4 68 67 77 78
4 69 68 78 79
4 62 61 71 72
4 63 62 72 73
4 73 72 82 83
4 83 82 92 93
4 78 77 87 88
4 79 78 88 89
4 88 87 97 98
4 89 88 98 99
4 61 60 70 71
4 71 70 80 81
4 72 71 81 82
4 81 80 90 91
4 82 81 91 92
4 87 86 96 97
4 41 40 50 51
4 42 41 51 52
4 45 44 54 55
4 46 45 55 56
4 47 46 56 57
4 55 54 64 65
4 56 55 65 66
4 51 50 60 61
4 52 51 61 62
4 65 64 74 75
4 43 42 52 53
4 53 52 62 63
4 57 56 66 67
4 66 65 75 76
4 67 66 76 77
4 75 74 84 85
4 76 75 85 86
4 77 76 86 87
4 85 84 94 95
4 86 85 95 96
4 109 109 109 109
4 110 113 112 111

CELL_TYPES 74
9
9
9
9
9
9
9
9
9
9
9
9
9
9
9
9
9
9
9
9
9
9
9
9
9
9
9
9
9
9
9
9
9
9
9
9
9
9
9
9
9
9
9
9
9
9
9
9
9
9
9
9
9
9
9
9
9
9
9
9
9
9
9
9
9
9
9
9
9
9
9
9
9
9

POINT_DATA 114
SCALARS NODE_ID int 1
LOOKUP_TABLE default
1000
1001
1002
1003
1004
1005
1006
1007
1008
1009
1010
1011
1012
1013
1014
1015
1016
1017
1018
1019
1020
1021
1022
1023
1024
1025
1026
1027
1028
1029
1030
1031
1032
1033
1034
1035
1036
1037
1038
1039
1060
1061
1062
1063
1064
1065
1066
1067
1068
1069
1070
1071
1072
1073
1074
1075
1076
1077
1078
1079
1080
1081
1082
1083
1084
1085
1086
1087
1088
1089
1090
1091
1092
1093
1094
1095
1096
1097
1098
1099
1100
1101
1102
1103
1104
1105
1106
1107
1108
1109
1110
1111
1112
1113
1114
1115
1116
1117
1118
1119
1140
1141
1142
1143
1144
1145
1146
1147
1148
0
0
0
0
0

CELL_DATA 74
SCALARS ELEMENT_ID int 1
LOOKUP_TABLE default
10022
10030
10016
10017
10023
10024
10025
10031
10000
10001
10006
10007
10008
10009
10014
10015
10002
10003
10010
10011
10018
10019
10026
10027
10004
10005
10012
10013
10020
10021
10028
10029
10057
10058
10066
10067
10075
10076
10069
10070
10079
10088
10084
10085
10093
10094
10068
10077
10078
10086
10087
10092
10050
10051
10054
10055
10056
10063
10064
10059
10060
10072
10052
10061
10065
10073
10074
10081
10082
10083
10090
10091
0
0

SCALARS PART_ID int 1
LOOKUP_TABLE default
1
1
1
1
1
1
1
1
1
1
1
1
1
1
1
1
1
1
1
1
1
1
1
1
1
1
1
1
1
1
1
1
2
2
2
2
2
2
2
2
2
2
2
2
2
2
2
2
2
2
2
2
2
2
2
2
2
2
2
2
2
2
2
2
2
2
2
2
2
2
2
2
1148
1148

SCALARS EROSION_STATUS int 1
LOOKUP_TABLE default
1
1
1
1
1
1
1
1
1
1
1
1
1
1
1
1
1
1
1
1
1
1
1
1
1
1
1
1
1
1
1
1
1
1
1
1
1
1
1
1
1
1
1
1
1
1
1
1
1
1
1
1
1
1
1
1
1
1
1
1
1
1
1
1
1
1
1
1
1
1
1
1
1
1

