# vtk DataFile Version 3.0
vtk output
ASCII
DATASET UNSTRUCTURED_GRID
FIELD FieldData 2
TIME 1 1 double
0.100056
CYCLE 1 1 int
0
POINTS 168 float
0 10 -5
4.85223 10.077 -5.05298
9.6659 10.0252 -5.10242
14.5624 9.97132 -5.20942
19.5245 9.91565 -5.21281
24.4496 9.86607 -5.15852
29.404 9.91359 -5.13881
34.3638 9.90733 -5.1205
39.3426 9.92995 -5.09581
44.3135 9.98309 -5.05339
49.2787 10.0244 -4.99967
0 0 0
4.84136 -0.0396213 -0.0134214
9.19981 -8.98495e-06 -2.96046e-06
14.4566 -0.195691 -0.208574
19.4143 -0.184945 -0.22588
24.4248 -0.195421 -0.23188
29.428 -0.176827 -0.213832
34.4149 -0.151316 -0.166905
39.405 -0.11296 -0.130735
44.3757 -0.0556027 -0.0803051
49.3302 0.012637 -0.0235831
0 5 0
4.83197 5.02636 0.0263669
9.71558 4.99131 -0.0587531
14.4274 4.81352 -0.192118
19.4405 4.81472 -0.2458
24.4184 4.80779 -0.205797
29.4001 4.82473 -0.182754
34.3875 4.85265 -0.153032
39.3533 4.89571 -0.110156
44.3126 4.95621 -0.0627877
49.285 5.01242 -0.011712
0 10 0
4.88906 10.0277 0.0183566
9.77609 9.99932 -0.0779312
14.6445 9.92208 -0.166288
19.4562 9.81657 -0.186563
24.4195 9.82244 -0.15171
29.3858 9.82708 -0.124256
34.3502 9.86242 -0.11203
39.3058 9.90952 -0.0856633
44.2606 9.96297 -0.0398222
49.2397 10.0122 0.000159102
0 15 0
4.91605 15.0338 -0.0119439
9.81798 15.0258 -0.043161
14.7051 14.9677 -0.0905688
19.5625 14.8911 -0.0838987
24.423 14.8274 -0.0695508
29.3733 14.8441 -0.0636029
34.3166 14.8742 -0.0702661
39.2625 14.9273 -0.0641089
44.218 14.9694 -0.0313104
49.1945 15.012 0.0120302
0 20 0
4.90491 20.0574 -0.0323576
9.84945 20.0491 -0.027038
14.755 20.005 -0.0157006
19.6336 19.9411 -0.0207909
24.4868 19.876 -0.0317787
29.3537 19.8564 -0.0477795
34.2831 19.8984 -0.0561632
39.2234 19.9404 -0.0584529
44.1872 19.9807 -0.0287455
49.1492 20.0118 0.0239013
0 0 5
4.81857 -0.0523281 5.06533
9.70264 -0.084071 5.01171
14.4251 -0.108509 4.77945
19.4511 -0.174901 4.78631
24.4205 -0.166929 4.76292
29.3887 -0.173826 4.79672
34.3771 -0.147882 4.82944
39.359 -0.12203 4.88114
44.318 -0.0615912 4.93146
49.2913 0.000413327 4.97625
0 20 5
4.94129 20.0558 4.99963
9.82488 20.0474 5.00044
14.7452 20.0081 5.01365
19.6376 19.9607 5.01861
24.5097 19.92 5.01164
29.3897 19.9064 4.98365
34.2948 19.9136 4.96137
39.2238 19.9561 4.96474
44.1451 19.9749 4.98617
49.1103 19.9995 5.02373
0 0 10
4.84219 -0.07494 10.092
9.78406 -0.0937332 10.0354
14.6615 -0.110626 9.88735
19.454 -0.11287 9.76294
24.4229 -0.151009 9.79522
29.3657 -0.152352 9.79962
34.3359 -0.153788 9.83783
39.3041 -0.121992 9.88981
44.2846 -0.0760428 9.94162
49.2523 -0.0118103 9.97608
0 5 10
4.9215 4.97039 10.0593
9.78312 4.92586 10.042
14.6541 4.94342 9.92676
19.5469 4.91105 9.81787
24.4366 4.87396 9.80865
29.383 4.85904 9.83914
34.3239 4.86344 9.859
39.2737 4.88549 9.90974
44.2318 4.93441 9.9502
49.2071 4.98797 9.98796
0 10 10
4.94472 9.99367 10.0163
9.80787 9.98468 10.0471
14.6723 9.96484 9.99295
19.5796 9.9416 9.92965
24.4844 9.9049 9.90925
29.392 9.87918 9.904
34.32 9.88334 9.92013
39.2477 9.90409 9.93697
44.1887 9.94219 9.96189
49.1618 9.98775 9.99983
0 15 10
4.94023 15.0162 10.0203
9.82132 15.0279 10.0369
14.7069 14.9993 10.0414
19.6031 14.9652 10.0168
24.5141 14.9349 10.0059
29.4105 14.9108 9.98934
34.3118 14.9069 9.96859
39.2276 14.929 9.97241
44.1533 14.9522 9.98554
49.1166 14.9875 10.0117
0 20 10
4.91102 20.0485 10.0317
9.83363 20.0565 10.0358
14.7346 20.0339 10.0359
19.6375 19.9936 10.0552
24.5339 19.9627 10.0452
29.4267 19.9452 10.0173
34.3102 19.9401 9.9893
39.2066 19.9523 9.99149
44.1342 19.9728 10.0081
49.0714 19.9873 10.0236
0 10 15
4.88508 10.0313 15.0576
9.82039 9.98413 15.071
14.7552 9.92486 15.0276
19.6195 9.82976 14.9651
24.4963 9.78421 14.9377
29.3925 9.79142 14.9333
34.3016 9.80889 14.9396
39.2313 9.86958 14.9596
44.1679 9.93081 14.9794
49.1229 9.97553 14.9997
49.2008 9.99998 4.99999
9.76376 9.98213 5.00607
9.76376 9.98213 5.00607
9.76376 9.98213 5.00607
9.76376 9.98213 5.00607
9.76376 9.98213 5.00607
9.76376 9.98213 5.00607
9.76376 9.98213 5.00607
9.76376 9.98213 5.00607
0 0 0
0 -24.9962 -24.9962
0 24.9962 -24.9962
0 24.9962 24.9962
0 -24.9962 24.9962

CELLS 268 1312
2 154 10
2 154 21
2 154 32
2 154 43
2 154 54
2 154 65
2 154 87
2 154 142
2 154 76
2 154 98
2 154 109
2 154 120
2 154 131
2 154 153
4 55 77 78 56
4 56 78 79 57
4 57 79 80 58
4 58 80 81 59
4 59 81 82 60
4 77 132 133 78
4 78 133 134 79
4 79 134 135 80
4 80 135 136 81
4 81 136 137 82
4 99 88 89 100
4 100 89 90 101
4 101 90 91 102
4 102 91 92 103
4 103 92 93 104
4 110 99 100 111
4 111 100 101 112
4 112 101 102 113
4 113 102 103 114
4 114 103 104 115
4 121 110 111 122
4 122 111 112 123
4 123 112 113 124
4 124 113 114 125
4 125 114 115 126
4 132 121 122 133
4 133 122 123 134
4 134 123 124 135
4 135 124 125 136
4 136 125 126 137
4 110 143 144 111
4 111 144 145 112
4 112 145 146 113
4 113 146 147 114
4 114 147 148 115
4 0 33 34 1
4 1 34 35 2
4 2 35 36 3
4 3 36 37 4
4 4 37 38 5
4 22 11 12 23
4 23 12 13 24
4 24 13 14 25
4 25 14 15 26
4 26 15 16 27
4 33 22 23 34
4 34 23 24 35
4 35 24 25 36
4 36 25 26 37
4 37 26 27 38
4 44 33 34 45
4 45 34 35 46
4 46 35 36 47
4 47 36 37 48
4 48 37 38 49
4 55 44 45 56
4 56 45 46 57
4 57 46 47 58
4 58 47 48 59
4 59 48 49 60
4 11 66 67 12
4 12 67 68 13
4 13 68 69 14
4 14 69 70 15
4 15 70 71 16
4 66 88 89 67
4 67 89 90 68
4 68 90 91 69
4 69 91 92 70
4 70 92 93 71
4 5 38 39 6
4 6 39 40 7
4 7 40 41 8
4 8 41 42 9
4 9 42 43 10
4 27 16 17 28
4 28 17 18 29
4 29 18 19 30
4 30 19 20 31
4 31 20 21 32
4 38 27 28 39
4 39 28 29 40
4 40 29 30 41
4 41 30 31 42
4 42 31 32 43
4 49 38 39 50
4 50 39 40 51
4 51 40 41 52
4 52 41 42 53
4 53 42 43 54
4 60 49 50 61
4 61 50 51 62
4 62 51 52 63
4 63 52 53 64
4 64 53 54 65
4 60 82 83 61
4 61 83 84 62
4 62 84 85 63
4 63 85 86 64
4 64 86 87 65
4 82 137 138 83
4 83 138 139 84
4 84 139 140 85
4 85 140 141 86
4 86 141 142 87
4 16 71 72 17
4 17 72 73 18
4 18 73 74 19
4 19 74 75 20
4 20 75 76 21
4 71 93 94 72
4 72 94 95 73
4 73 95 96 74
4 74 96 97 75
4 75 97 98 76
4 104 93 94 105
4 105 94 95 106
4 106 95 96 107
4 107 96 97 108
4 108 97 98 109
4 115 104 105 116
4 116 105 106 117
4 117 106 107 118
4 118 107 108 119
4 119 108 109 120
4 126 115 116 127
4 127 116 117 128
4 128 117 118 129
4 129 118 119 130
4 130 119 120 131
4 137 126 127 138
4 138 127 128 139
4 139 128 129 140
4 140 129 130 141
4 141 130 131 142
4 115 148 149 116
4 116 149 150 117
4 117 150 151 118
4 118 151 152 119
4 119 152 153 120
4 155 57 79 79
4 155 79 134 134
4 155 101 90 90
4 155 112 101 101
4 155 123 112 112
4 155 134 123 123
4 155 112 145 145
4 155 2 35 35
4 155 24 13 13
4 155 35 24 24
4 155 46 35 35
4 155 57 46 46
4 155 13 68 68
4 155 68 90 90
4 156 57 79 79
4 156 79 134 134
4 156 101 90 90
4 156 112 101 101
4 156 123 112 112
4 156 134 123 123
4 156 112 145 145
4 156 2 35 35
4 156 24 13 13
4 156 35 24 24
4 156 46 35 35
4 156 57 46 46
4 156 13 68 68
4 156 68 90 90
4 157 57 79 79
4 157 79 134 134
4 157 101 90 90
4 157 112 101 101
4 157 123 112 112
4 157 134 123 123
4 157 112 145 145
4 157 2 35 35
4 157 24 13 13
4 157 35 24 24
4 157 46 35 35
4 157 57 46 46
4 157 13 68 68
4 157 68 90 90
4 158 57 79 79
4 158 79 134 134
4 158 101 90 90
4 158 112 101 101
4 158 123 112 112
4 158 134 123 123
4 158 112 145 145
4 158 2 35 35
4 158 24 13 13
4 158 35 24 24
4 158 46 35 35
4 158 57 46 46
4 158 13 68 68
4 158 68 90 90
4 159 57 79 79
4 159 79 134 134
4 159 101 90 90
4 159 112 101 101
4 159 123 112 112
4 159 134 123 123
4 159 112 145 145
4 159 2 35 35
4 159 24 13 13
4 159 35 24 24
4 159 46 35 35
4 159 57 46 46
4 159 13 68 68
4 159 68 90 90
4 160 57 79 79
4 160 79 134 134
4 160 101 90 90
4 160 112 101 101
4 160 123 112 112
4 160 134 123 123
4 160 112 145 145
4 160 2 35 35
4 160 24 13 13
4 160 35 24 24
4 160 46 35 35
4 160 57 46 46
4 160 13 68 68
4 160 68 90 90
4 161 57 79 79
4 161 79 134 134
4 161 101 90 90
4 161 112 101 101
4 161 123 112 112
4 161 134 123 123
4 161 112 145 145
4 161 2 35 35
4 161 24 13 13
4 161 35 24 24
4 161 46 35 35
4 161 57 46 46
4 161 13 68 68
4 161 68 90 90
4 162 57 79 79
4 162 79 134 134
4 162 101 90 90
4 162 112 101 101
4 162 123 112 112
4 162 134 123 123
4 162 112 145 145
4 162 2 35 35
4 162 24 13 13
4 162 35 24 24
4 162 46 35 35
4 162 57 46 46
4 162 13 68 68
4 162 68 90 90
4 163 163 163 163
4 164 167 166 165

CELL_TYPES 268
3
3
3
3
3
3
3
3
3
3
3
3
3
3
9
9
9
9
9
9
9
9
9
9
9
9
9
9
9
9
9
9
9
9
9
9
9
9
9
9
9
9
9
9
9
9
9
9
9
9
9
9
9
9
9
9
9
9
9
9
9
9
9
9
9
9
9
9
9
9
9
9
9
9
9
9
9
9
9
9
9
9
9
9
9
9
9
9
9
9
9
9
9
9
9
9
9
9
9
9
9
9
9
9
9
9
9
9
9
9
9
9
9
9
9
9
9
9
9
9
9
9
9
9
9
9
9
9
9
9
9
9
9
9
9
9
9
9
9
9
9
9
9
9
9
9
9
9
9
9
9
9
9
9
5
5
5
5
5
5
5
5
5
5
5
5
5
5
5
5
5
5
5
5
5
5
5
5
5
5
5
5
5
5
5
5
5
5
5
5
5
5
5
5
5
5
5
5
5
5
5
5
5
5
5
5
5
5
5
5
5
5
5
5
5
5
5
5
5
5
5
5
5
5
5
5
5
5
5
5
5
5
5
5
5
5
5
5
5
5
5
5
5
5
5
5
5
5
5
5
5
5
5
5
5
5
5
5
5
5
5
5
5
5
5
5
9
9

POINT_DATA 168
SCALARS NODE_ID int 1
LOOKUP_TABLE default
1
2
3
4
5
6
7
8
9
10
11
12
13
14
15
16
17
18
19
20
21
22
23
24
25
26
27
28
29
30
31
32
33
34
35
36
37
38
39
40
41
42
43
44
45
46
47
48
49
50
51
52
53
54
55
56
57
58
59
60
61
62
63
64
65
66
67
68
69
70
71
72
73
74
75
76
77
78
79
80
81
82
83
84
85
86
87
88
89
90
91
92
93
94
95
96
97
98
99
100
101
102
103
104
105
106
107
108
109
110
111
112
113
114
115
116
117
118
119
120
121
122
123
124
125
126
127
128
129
130
131
132
133
134
135
136
137
138
139
140
141
142
143
144
145
146
147
148
149
150
151
152
153
154
155
0
0
0
0
0
0
0
0
0
0
0
0
0

CELL_DATA 268
SCALARS ELEMENT_ID int 1
LOOKUP_TABLE default
0
0
0
0
0
0
0
0
0
0
0
0
0
0
61
62
63
64
65
81
82
83
84
85
91
92
93
94
95
101
102
103
104
105
111
112
113
114
115
121
122
123
124
125
131
132
133
134
135
1
2
3
4
5
11
12
13
14
15
21
22
23
24
25
31
32
33
34
35
41
42
43
44
45
51
52
53
54
55
71
72
73
74
75
6
7
8
9
10
16
17
18
19
20
26
27
28
29
30
36
37
38
39
40
46
47
48
49
50
66
67
68
69
70
86
87
88
89
90
56
57
58
59
60
76
77
78
79
80
96
97
98
99
100
106
107
108
109
110
116
117
118
119
120
126
127
128
129
130
136
137
138
139
140
0
0
0
0
0
0
0
0
0
0
0
0
0
0
0
0
0
0
0
0
0
0
0
0
0
0
0
0
0
0
0
0
0
0
0
0
0
0
0
0
0
0
0
0
0
0
0
0
0
0
0
0
0
0
0
0
0
0
0
0
0
0
0
0
0
0
0
0
0
0
0
0
0
0
0
0
0
0
0
0
0
0
0
0
0
0
0
0
0
0
0
0
0
0
0
0
0
0
0
0
0
0
0
0
0
0
0
0
0
0
0
0
0
0

SCALARS PART_ID int 1
LOOKUP_TABLE default
155
155
155
155
155
155
155
155
155
155
155
155
155
155
1
1
1
1
1
1
1
1
1
1
1
1
1
1
1
1
1
1
1
1
1
1
1
1
1
1
1
1
1
1
1
1
1
1
1
1
1
1
1
1
1
1
1
1
1
1
1
1
1
1
1
1
1
1
1
1
1
1
1
1
1
1
1
1
1
1
1
1
1
1
1
1
1
1
1
1
1
1
1
1
1
1
1
1
1
1
1
1
1
1
1
1
1
1
1
1
1
1
1
1
1
1
1
1
1
1
1
1
1
1
1
1
1
1
1
1
1
1
1
1
1
1
1
1
1
1
1
1
1
1
1
1
1
1
1
1
1
1
1
1
1
1
1
1
1
1
1
1
1
1
1
1
1
1
2
2
2
2
2
2
2
2
2
2
2
2
2
2
3
3
3
3
3
3
3
3
3
3
3
3
3
3
4
4
4
4
4
4
4
4
4
4
4
4
4
4
5
5
5
5
5
5
5
5
5
5
5
5
5
5
6
6
6
6
6
6
6
6
6
6
6
6
6
6
7
7
7
7
7
7
7
7
7
7
7
7
7
7
8
8
8
8
8
8
8
8
8
8
8
8
8
8
1
1

SCALARS EROSION_STATUS int 1
LOOKUP_TABLE default
1
1
1
1
1
1
1
1
1
1
1
1
1
1
1
1
1
1
1
1
1
1
1
1
1
1
1
1
1
1
1
1
1
1
1
1
1
1
1
1
1
1
1
1
1
1
1
1
1
1
1
1
1
1
1
1
1
1
1
1
1
1
1
1
1
1
1
1
1
1
1
1
1
1
1
1
1
1
1
1
1
1
1
1
1
1
1
1
1
1
1
1
1
1
1
1
1
1
1
1
1
1
1
1
1
1
1
1
1
1
1
1
1
1
1
1
1
1
1
1
1
1
1
1
1
1
1
1
1
1
1
1
1
1
1
1
1
1
1
1
1
1
1
1
1
1
1
1
1
1
1
1
1
1
1
1
1
1
1
1
1
1
1
1
1
1
1
1
1
1
1
1
1
1
1
1
1
1
1
1
1
1
1
1
1
1
1
1
1
1
1
1
1
1
1
1
1
1
1
1
1
1
1
1
1
1
1
1
1
1
1
1
1
1
1
1
1
1
1
1
1
1
1
1
1
1
1
1
1
1
1
1
1
1
1
1
1
1
1
1
1
1
1
1
1
1
1
1
1
1
1
1
1
1
1
1
1
1
1
1
1
1
1
1
1
1
1
1

