# vtk DataFile Version 3.0
vtk output
ASCII
DATASET UNSTRUCTURED_GRID
FIELD FieldData 2
TIME 1 1 double
4.01074
CYCLE 1 1 int
0
POINTS 3752 float
185.77 1.71065 8.59474
185.77 -18.1993 8.59474
185.77 1.71065 28.5107
185.77 -18.1993 28.5107
185.77 22.6206 8.59474
185.77 22.6206 28.5107
185.77 1.71065 -12.3219
185.77 -18.1993 -12.3219
185.77 22.6206 -12.3219
185.77 43.5307 8.59474
185.77 43.5307 28.5107
185.77 64.5 8.59474
185.77 64.5 28.5107
185.77 43.5306 -12.3219
185.77 64.5 -12.3219
185.77 1.71065 -33.2386
185.77 -18.1993 -33.2386
185.77 22.6206 -33.2386
185.77 1.71065 -54.1552
185.77 -18.1993 -54.1552
185.77 22.6206 -54.1552
185.77 43.5307 -33.2386
185.77 64.5 -33.2386
185.77 43.5306 -54.1552
185.77 64.5 -54.1552
197.589 1.71092 6.99139
197.588 -18.1991 6.99174
198.373 1.70955 26.8881
198.374 -18.1995 26.8889
197.589 22.6208 6.99101
198.373 22.6197 26.888
197.23 1.71058 -13.9208
197.23 -18.1994 -13.9204
197.23 22.6206 -13.9211
197.589 43.5307 6.9908
198.374 43.5301 26.8877
197.589 64.4989 6.99215
198.375 64.4979 26.8892
197.231 43.5306 -13.9213
197.231 64.4995 -13.9207
197.181 1.7105 -34.8373
197.181 -18.1995 -34.8368
197.181 22.6206 -34.8375
197.189 1.71057 -55.7546
197.189 -18.1994 -55.7542
197.189 22.6206 -55.7548
197.181 43.5306 -34.8377
197.181 64.4998 -34.8374
197.189 43.5306 -55.7549
197.189 64.4999 -55.7548
185.77 1.71065 -75.0719
185.77 -18.1993 -75.0719
185.77 22.6206 -75.0719
185.77 1.71065 -95.9886
185.77 -18.1993 -95.9886
185.77 22.6206 -95.9886
185.77 43.5307 -75.0719
185.77 64.5 -75.0719
185.77 43.5306 -95.9886
185.77 64.5 -95.9886
185.77 1.71065 -116.905
185.77 -18.1993 -116.905
185.77 22.6206 -116.905
185.77 1.71065 -137.822
185.77 -18.1993 -137.822
185.77 22.6206 -137.822
185.77 43.5307 -116.905
185.77 64.5 -116.905
185.77 43.5306 -137.822
185.77 64.5 -137.822
197.188 1.71068 -76.6721
197.188 -18.1992 -76.6718
197.188 22.6206 -76.6723
197.188 1.71068 -97.5894
197.188 -18.1992 -97.5892
197.188 22.6206 -97.5895
197.188 43.5306 -76.6723
197.188 64.4999 -76.6723
197.188 43.5306 -97.5896
197.188 64.4999 -97.5895
197.188 1.71059 -118.506
197.188 -18.1994 -118.506
197.188 22.6206 -118.507
197.188 1.71054 -139.423
197.188 -18.1994 -139.423
197.188 22.6206 -139.423
197.188 43.5306 -118.507
197.188 64.5 -118.507
197.188 43.5306 -139.424
197.188 64.5 -139.424
185.77 1.71065 -158.739
185.77 -18.1993 -158.739
185.77 22.6206 -158.739
185.77 1.71065 -179.655
185.77 -18.1993 -179.655
185.77 22.6206 -179.655
185.77 43.5307 -158.739
185.77 64.5 -158.739
185.77 43.5306 -179.655
185.77 64.5 -179.655
185.77 1.71065 -200.572
185.77 -18.1993 -200.572
185.77 22.6206 -200.572
185.77 1.71065 -221.489
185.77 -18.1993 -221.489
185.77 22.6206 -221.489
185.77 43.5307 -200.572
185.77 64.5 -200.572
185.77 43.5306 -221.489
185.77 64.5 -221.489
197.195 1.71059 -160.34
197.195 -18.1993 -160.34
197.195 22.6206 -160.341
197.16 1.71067 -181.258
197.16 -18.1993 -181.258
197.16 22.6206 -181.259
197.195 43.5306 -160.341
197.195 64.5 -160.341
197.16 43.5306 -181.259
197.16 64.5 -181.259
196.829 1.71071 -202.173
196.829 -18.1993 -202.173
196.829 22.6207 -202.174
196.042 1.71065 -223.075
196.041 -18.1995 -223.075
196.042 22.6208 -223.075
196.829 43.5307 -202.174
196.83 64.5 -202.174
196.042 43.5308 -223.075
196.042 64.5 -223.075
185.77 -81.9294 8.59474
185.77 -101.839 8.59474
185.77 -81.9294 28.5107
185.77 -101.839 28.5107
185.77 -61.0193 8.59474
185.77 -61.0193 28.5107
185.77 -81.9294 -12.3219
185.77 -101.839 -12.3219
185.77 -61.0193 -12.3219
185.77 -40.1093 8.59474
185.77 -40.1093 28.5107
185.77 -40.1094 -12.3219
185.77 -81.9294 -33.2386
185.77 -101.839 -33.2386
185.77 -61.0193 -33.2386
185.77 -81.9294 -54.1552
185.77 -101.839 -54.1552
185.77 -61.0193 -54.1552
185.77 -40.1093 -33.2386
185.77 -40.1094 -54.1552
197.583 -81.929 6.99303
197.578 -101.838 6.99398
198.364 -81.9296 26.8896
198.355 -101.839 26.8909
197.586 -61.019 6.99286
198.37 -61.0194 26.8896
197.229 -81.9295 -13.9183
197.228 -101.839 -13.9175
197.23 -61.0195 -13.9191
197.588 -40.1091 6.99229
198.374 -40.1094 26.8894
197.23 -40.1094 -13.9198
197.181 -81.9296 -34.8344
197.181 -101.839 -34.8331
197.181 -61.0197 -34.8354
197.189 -81.9295 -55.7517
197.189 -101.84 -55.7502
197.189 -61.0195 -55.7528
197.181 -40.1097 -34.8362
197.189 -40.1095 -55.7536
185.77 -81.9294 -75.0719
185.77 -101.839 -75.0719
185.77 -61.0193 -75.0719
185.77 -81.9294 -95.9886
185.77 -101.839 -95.9886
185.77 -61.0193 -95.9886
185.77 -40.1093 -75.0719
185.77 -40.1094 -95.9886
185.77 -81.9294 -116.905
185.77 -101.839 -116.905
185.77 -61.0193 -116.905
185.77 -81.9294 -137.822
185.77 -101.839 -137.822
185.77 -61.0193 -137.822
185.77 -40.1093 -116.905
185.77 -40.1094 -137.822
197.188 -81.9294 -76.6694
197.188 -101.84 -76.6681
197.188 -61.0193 -76.6705
197.188 -81.9295 -97.5872
197.188 -101.84 -97.5861
197.188 -61.0194 -97.5881
197.188 -40.1093 -76.6713
197.188 -40.1093 -97.5888
197.188 -81.9295 -118.505
197.188 -101.839 -118.504
197.188 -61.0194 -118.505
197.188 -81.9293 -139.422
197.188 -101.839 -139.422
197.188 -61.0193 -139.423
197.188 -40.1094 -118.506
197.188 -40.1094 -139.423
185.77 -81.9294 -158.739
185.77 -101.839 -158.739
185.77 -61.0193 -158.739
185.77 -81.9294 -179.655
185.77 -101.839 -179.655
185.77 -61.0193 -179.655
185.77 -40.1093 -158.739
185.77 -40.1094 -179.655
185.77 -81.9294 -200.572
185.77 -101.839 -200.572
185.77 -61.0193 -200.572
185.77 -81.9294 -221.489
185.77 -101.839 -221.489
185.77 -61.0193 -221.489
185.77 -40.1093 -200.572
185.77 -40.1094 -221.489
197.195 -81.9291 -160.34
197.195 -101.839 -160.339
197.195 -61.0191 -160.34
197.16 -81.9292 -181.257
197.16 -101.839 -181.257
197.16 -61.0192 -181.258
197.195 -40.1093 -160.34
197.16 -40.1093 -181.258
196.829 -81.9294 -202.172
196.829 -101.839 -202.172
196.829 -61.0195 -202.173
196.04 -81.9298 -223.074
196.041 -101.84 -223.074
196.041 -61.0197 -223.074
196.829 -40.1095 -202.173
196.041 -40.1097 -223.075
185.77 -165.583 8.59474
185.77 -185.5 8.59474
185.77 -165.583 28.5107
185.77 -185.5 28.5107
185.77 -144.667 8.59474
185.77 -144.667 28.5107
185.77 -165.583 -12.3219
185.77 -185.5 -12.3219
185.77 -144.667 -12.3219
185.77 -123.749 8.59474
185.77 -123.749 28.5107
185.77 -123.749 -12.3219
185.77 -165.583 -33.2386
185.77 -185.5 -33.2386
185.77 -144.667 -33.2386
185.77 -165.583 -54.1552
185.77 -185.5 -54.1552
185.77 -144.667 -54.1552
185.77 -123.749 -33.2386
185.77 -123.749 -54.1552
197.532 -165.582 6.98579
197.53 -185.498 6.98362
197.99 -165.576 26.8775
197.905 -185.494 26.8469
197.543 -144.664 7.00557
198.181 -144.658 26.9028
197.248 -165.584 -13.9125
197.258 -185.499 -13.8914
197.233 -144.667 -13.9066
197.563 -123.747 6.99298
198.314 -123.746 26.8932
197.228 -123.749 -13.9163
197.183 -165.584 -34.8237
197.184 -185.499 -34.8038
197.182 -144.667 -34.8256
197.189 -165.584 -55.7419
197.188 -185.499 -55.7341
197.189 -144.667 -55.7445
197.181 -123.75 -34.8303
197.189 -123.75 -55.7476
185.77 -165.583 -75.0719
185.77 -185.5 -75.0719
185.77 -144.667 -75.0719
185.77 -165.583 -95.9886
185.77 -185.5 -95.9886
185.77 -144.667 -95.9886
185.77 -123.749 -75.0719
185.77 -123.749 -95.9886
185.77 -165.583 -116.905
185.77 -185.5 -116.905
185.77 -144.667 -116.905
185.77 -165.583 -137.822
185.77 -185.5 -137.822
185.77 -144.667 -137.822
185.77 -123.749 -116.905
185.77 -123.749 -137.822
197.189 -165.584 -76.662
197.189 -185.499 -76.6609
197.189 -144.667 -76.664
197.188 -165.584 -97.582
197.188 -185.499 -97.5818
197.188 -144.667 -97.5832
197.188 -123.75 -76.6661
197.188 -123.75 -97.5846
197.188 -165.584 -118.501
197.188 -185.499 -118.502
197.188 -144.667 -118.502
197.188 -165.583 -139.42
197.188 -185.499 -139.421
197.188 -144.667 -139.42
197.188 -123.75 -118.503
197.188 -123.749 -139.421
185.77 -165.583 -158.739
185.77 -185.5 -158.739
185.77 -144.667 -158.739
185.77 -165.583 -179.655
185.77 -185.5 -179.655
185.77 -144.667 -179.655
185.77 -123.749 -158.739
185.77 -123.749 -179.655
185.77 -165.583 -200.572
185.77 -185.5 -200.572
185.77 -144.667 -200.572
185.77 -165.583 -221.489
185.77 -185.5 -221.489
185.77 -144.667 -221.489
185.77 -123.749 -200.572
185.77 -123.749 -221.489
197.196 -165.583 -160.338
197.196 -185.499 -160.338
197.196 -144.666 -160.338
197.16 -165.583 -181.256
197.16 -185.499 -181.256
197.16 -144.667 -181.256
197.196 -123.749 -160.338
197.16 -123.749 -181.256
196.829 -165.584 -202.171
196.829 -185.499 -202.171
196.829 -144.667 -202.171
196.04 -165.583 -223.071
196.04 -185.498 -223.07
196.041 -144.667 -223.072
196.829 -123.749 -202.171
196.041 -123.75 -223.073
185.77 -8.24433 8.59474
185.77 1.71065 18.5527
185.77 12.1657 8.59474
185.77 1.71065 -1.86359
191.867 1.71084 7.81057
185.77 -18.1993 18.5527
185.77 -18.1993 -1.86359
191.867 -18.1991 7.81131
185.77 -29.1543 8.59474
185.77 -8.24433 28.5107
185.77 12.1657 28.5107
192.477 1.71031 27.7208
192.476 -18.1992 27.7217
185.77 -29.1543 28.5107
185.77 22.6206 18.5527
185.77 22.6206 -1.86359
185.77 33.0756 8.59474
191.867 22.6208 7.80987
185.77 33.0756 28.5107
192.477 22.6203 27.7202
185.77 -8.24433 -12.3219
185.77 12.1657 -12.3219
185.77 1.71065 -22.7803
191.536 1.71063 -13.1072
185.77 -18.1993 -22.7803
191.536 -18.1993 -13.1064
185.77 -29.1543 -12.3219
185.77 33.0756 -12.3219
185.77 22.6206 -22.7803
191.536 22.6206 -13.1078
185.77 43.5307 18.5527
185.77 54.0153 8.59474
185.77 43.5307 -1.86359
191.867 43.5307 7.80926
185.77 54.0153 28.5107
192.476 43.5306 27.7194
185.77 64.5 18.5527
185.77 64.5 -1.86359
191.867 64.4995 7.8091
192.476 64.4991 27.7187
185.77 54.0153 -12.3219
185.77 43.5307 -22.7803
191.536 43.5306 -13.1083
185.77 64.5 -22.7803
191.536 64.4998 -13.1082
185.77 -8.24433 -33.2386
185.77 12.1657 -33.2386
185.77 1.71065 -43.6969
191.481 1.71057 -34.0267
185.77 -18.1993 -43.6969
191.481 -18.1994 -34.026
185.77 -29.1543 -33.2386
185.77 22.6206 -43.6969
185.77 33.0756 -33.2386
191.481 22.6206 -34.0272
185.77 -8.24433 -54.1552
185.77 12.1657 -54.1552
191.487 1.7106 -54.9452
185.77 1.71065 -64.6136
191.487 -18.1994 -54.9445
185.77 -18.1993 -64.6136
185.77 -29.1543 -54.1552
185.77 33.0756 -54.1552
[...]
POINT_DATA 3752
SCALARS NODE_ID int 1
LOOKUP_TABLE default
1186
1187
1188
1189
1204
1206
1230
1231
1242
1266
1268
1284
1286
1310
1322
1342
1343
1354
1370
1371
1376
1390
1402
1418
1424
1703
1704
1705
1706
1715
1717
1725
1726
1733
1743
1745
1755
1757
1765
1773
1781
1782
1789
1795
1796
1799
1805
1813
1819
1823
2481
2482
2499
2513
2514
2525
2541
2559
2573
2585
2597
2598
2609
2617
2618
2623
2633
2645
2653
2659
2671
2672
2677
2683
2684
2687
2691
2697
2703
2707
2711
2712
2715
2719
2720
2721
2723
2727
2731
2733
3391
3392
3409
3423
3424
3435
3451
3469
3483
3495
3507
3508
3519
3527
3528
3533
3543
3555
3563
3569
3581
3582
3587
3593
3594
3597
3601
3607
3613
3617
3621
3622
3625
3629
3630
3631
3633
3637
3641
3643
6083
6084
6085
6086
6101
6103
6115
6116
6127
6143
6145
6175
6199
6200
6211
6219
6220
6225
6235
6255
6273
6274
6275
6276
6279
6281
6285
6286
6289
6293
6295
6305
6313
6314
6317
6321
6322
6323
6325
6333
6909
6910
6921
6933
6934
6945
6957
6981
7005
7006
7017
7025
7026
7031
7041
7061
7079
7080
7083
7087
7088
7091
7095
7103
7111
7112
7115
7119
7120
7121
7123
7131
7707
7708
7719
7731
7732
7743
7755
7779
7803
7804
7815
7823
7824
7829
7839
7859
7871
7872
7875
7879
7880
7883
7887
7895
7903
7904
7907
7911
7912
7913
7915
7923
8954
8955
8956
8957
8972
8974
8986
8987
8998
9014
9016
9046
9070
9071
9082
9090
9091
9096
9106
9126
9144
9145
9146
9147
9150
9152
9156
9157
9160
9164
9166
9176
9184
9185
9188
9192
9193
9194
9196
9204
9780
9781
9792
9804
9805
9816
9828
9852
9876
9877
9888
9896
9897
9902
9912
9932
9950
9951
9954
9958
9959
9962
9966
9974
9982
9983
9986
9990
9991
9992
9994
10002
10578
10579
10590
10602
10603
10614
10626
10650
10674
10675
10686
10694
10695
10700
10710
10730
10742
10743
10746
10750
10751
10754
10758
10766
10774
10775
10778
10782
10783
10784
10786
10794
10797
10798
10799
10800
10801
10802
10803
10804
10805
10806
10807
10808
10809
10810
10811
10812
10813
10814
10815
10816
10817
10818
10819
10820
10821
10822
10823
10824
10825
10826
10827
10828
10829
10830
10831
10832
10833
10834
10835
10836
10837
10838
10839
10840
10841
10842
10843
10844
10845
10846
10847
10848
10849
10850
10851
10852
10853
10854
10855
10856
10857
10858
10859
10860
10861
10862
10863
10864
10865
10866
10867
10868
10869
10870
10871
10872
10873
10874
10875
10876
10877
10878
10879
10880
10881
10882
10883
10884
10885
10886
10887
10888
10889
10890
10891
10892
10893
10894
10895
10896
10897
10898
10899
10900
10901
10902
10903
10904
10905
10906
10907
10908
10909
10910
10911
10912
10913
10914
10915
10916
10917
10918
10919
10920
10921
10922
10923
10924
10925
10926
10927
10928
10929
10930
10931
10932
10933
10934
10935
10936
10937
10938
10939
10940
10941
10942
10943
10944
10945
10946
10947
10948
10949
10950
10951
10952
10953
10954
10955
10956
10957
10958
10959
10960
10961
10962
10963
10964
10965
10966
10967
10968
10969
10970
10971
10972
10973
10974
10975
10976
10977
10978
10979
10980
10981
10982
10983
10984
10985
10986
10987
10988
10989
10990
10991
10992
10993
10994
10995
10996
10997
10998
10999
11000
11001
11002
11003
11004
11005
11006
11007
11008
11009
11010
11011
11012
11013
11014
11015
11016
11017
11018
11019
11020
11021
11022
11023
11024
11025
11026
11027
11028
11029
11030
11031
11032
11033
11034
11035
11036
11037
11038
11039
11040
11041
11042
11043
11044
11045
11046
11047
11048
11049
11050
11051
11052
11053
11054
11055
11056
11057
11058
11059
11060
11061
11062
11063
11064
11065
11066
11067
11068
11069
11070
11071
11072
11073
11074
11075
11076
11077
11078
11079
11080
11081
11082
11083
11084
11085
11086
11087
11088
11089
11090
11091
11092
11093
11094
11095
11096
11097
11098
11099
11100
11101
11102
11103
11104
11105
11106
11107
11108
11109
11110
11111
11112
11113
11114
11115
11116
11117
11118
11119
11120
11121
11122
11123
11124
11125
11126
11127
11128
11129
11130
11131
11132
11133
11134
11135
11136
11137
11138
11139
11140
11141
11142
11143
11144
11145
11146
11147
11148
11149
11150
11151
11152
11153
11154
11155
11156
11157
11158
11159
11160
11161
11162
11163
11164
11165
11166
11167
11168
11169
11170
11171
11172
11173
11174
11175
11176
11177
11178
11179
11180
11181
11182
11183
11184
11185
11186
11187
11188
11189
11190
11191
11192
11193
11194
11195
11196
11197
11198
11199
11200
11201
11202
11203
11204
11205
11206
11207
11208
11209
11210
11211
11212
11213
11214
11215
11216
11217
11218
11219
11220
11221
11222
11223
11224
11225
11226
11227
11228
11229
11230
11231
11232
11233
11234
11235
11236
11237
11238
11239
11240
11241
11242
11243
11244
11245
11246
11247
11248
11249
11250
11251
11252
11253
11254
11255
11256
11257
11258
11259
11260
11261
11262
11263
11264
11265
11266
11267
11268
11269
11270
11271
11272
11273
11274
11275
11276
11277
11278
11279
11280
11281
11282
11283
11284
11285
11286
11287
11288
11289
11290
11291
11292
11293
11294
11295
11296
11297
11298
11299
11300
11301
11302
11303
11304
11305
11306
11307
11308
11309
11310
11311
11312
11313
11314
11315
11316
11317
11318
11319
11320
11321
11322
11323
11324
11325
11326
11327
11328
11329
11330
11331
11332
11333
11334
11335
11336
11337
11338
11339
11340
11341
11342
11343
11344
11345
11346
11347
11348
11349
11350
11351
11352
11353
11354
11355
11356
11357
11358
11359
11360
11361
11362
11363
11364
11365
11366
11367
11368
11369
11370
11371
11372
11373
11374
11375
11376
11377
11378
11379
11380
11381
11382
11383
11384
11385
11386
11387
11388
11389
11390
11391
11392
11393
11394
11395
11396
11397
11398
11399
11400
11401
11402
11403
11404
11405
11406
11407
11408
11409
11410
11411
11412
11413
11414
11415
11416
11417
11418
11419
11420
11421
11422
11423
11424
11425
11426
11427
11428
11429
11430
11431
11432
11433
11434
11435
11436
11437
11438
11439
11440
11441
11442
11443
11444
11445
11446
11447
11448
11449
11450
11451
11452
11453
11454
11455
11456
11457
11458
11459
11460
11461
11462
11463
11464
11465
11466
11467
11468
11469
11470
11471
11472
11473
11474
11475
11476
11477
11478
11479
11480
11481
11482
11483
11484
11485
11486
11487
11488
11489
11490
11491
11492
11493
11494
11495
11496
11497
11498
11499
11500
11501
11502
11503
11504
11505
11506
11507
11508
11509
11510
11511
11512
11513
11514
11515
11516
11517
11518
11519
11520
11521
11522
11523
11524
11525
11526
11527
11528
11529
11530
11531
11532
11533
11534
11535
11536
11537
11538
11539
11540
11541
11542
11543
11544
11545
11546
11547
11548
11549
11550
11551
11552
11553
11554
11555
11556
11557
11558
11559
11560
11561
11562
11563
11564
11565
11566
11567
11568
11569
11570
11571
11572
11573
11574
11575
11576
11577
11578
11579
11580
11581
11582
11583
11584
11585
11586
11587
11588
11589
11590
11591
11592
11593
11594
11595
11596
11597
11598
11599
11600
11601
11602
11603
11604
11605
11606
11607
11608
11609
11610
11611
11612
11613
11614
11615
11616
11617
11618
11619
11620
11621
11622
11623
11624
11625
11626
11627
11628
11629
11630
11631
11632
11633
11634
11635
11636
11637
11638
11639
11640
11641
11642
11643
11644
11645
11646
11647
11648
11649
11650
11651
11652
11653
11654
11655
11656
11657
11658
11659
11660
11661
11662
11663
11664
11665
11666
11667
11668
11669
11670
11671
11672
11673
11674
11675
11676
11677
11678
11679
11680
11681
11682
11683
11684
11685
11686
11687
11688
11689
11690
11691
11692
11693
11694
11695
11696
11697
11698
11699
11700
11701
11702
11703
11704
11705
11706
11707
11708
11709
11710
11711
11712
11713
11714
11715
11716
11717
11718
11719
11720
11721
11722
11723
11724
11725
11726
11727
11728
11729
11730
11731
11732
11733
11734
11735
11736
11737
11738
11739
11740
11741
11742
11743
11744
11745
11746
11747
11748
11749
11750
11751
11752
11753
11754
11755
11756
11757
11758
11759
11760
11761
11762
11763
11764
11765
11766
11767
11768
11769
11770
11771
11772
11773
11774
11775
11776
11777
11778
11779
11780
11781
11782
11783
11784
11785
11786
11787
11788
11789
11790
11791
11792
11793
11794
11795
11796
11797
11798
11799
11800
11801
11802
11803
11804
11805
11806
11807
11808
11809
11810
11811
11812
11813
11814
11815
11816
11817
11818
11819
11820
11821
11822
11823
11824
11825
11826
11827
11828
11829
11830
11831
11832
11833
11834
11835
11836
11837
11838
11839
11840
11841
11842
11843
11844
11845
11846
11847
11848
11849
11850
11851
11852
11853
11854
11855
11856
11857
11858
11859
11860
11861
11862
11863
11864
11865
11866
11867
11868
11869
11870
11871
11872
11873
11874
11875
11876
11877
11878
11879
11880
11881
11882
11883
11884
11885
11886
11887
11888
11889
11890
11891
11892
11893
11894
11895
11896
11897
11898
11899
11900
11901
11902
11903
11904
11905
11906
11907
11908
11909
11910
11911
11912
11913
11914
11915
11916
11917
11918
11919
11920
11921
11922
11923
11924
11925
11926
11927
11928
11929
11930
11931
11932
11933
11934
11935
11936
11937
11938
11939
11940
11941
11942
11943
11944
11945
11946
11947
11948
11949
11950
11951
11952
11953
11954
11955
11956
11957
11958
11959
11960
11961
11962
11963
11964
11965
11966
11967
11968
11969
11970
11971
11972
11973
11974
11975
11976
11977
11978
11979
11980
11981
11982
11983
11984
11985
11986
11987
11988
11989
11990
11991
11992
11993
11994
11995
11996
11997
11998
11999
12000
12001
12002
12003
12004
12005
12006
12007
12008
12009
12010
12011
12012
12013
12014
12015
12016
12017
12018
12019
12020
12021
12022
12023
12024
12025
12026
12027
12028
12029
12030
12031
12032
12033
12034
12035
12036
12037
12038
12039
12040
12041
12042
12043
12044
12045
12046
12047
12048
12049
12050
12051
12052
12053
12054
12055
12056
12057
12058
12059
12060
12061
12062
12063
12064
12065
12066
12067
12068
12069
12070
12071
12072
12073
12074
12075
12076
12077
12078
12079
12080
12081
12082
12083
12084
12085
12086
12087
12088
12089
12090
12091
12092
12093
12094
12095
12096
12097
12098
12099
12100
12101
12102
12103
12104
12105
12106
12107
12108
12109
12110
12111
12112
12113
12114
12115
12116
12117
12118
12119
12120
12121
12122
12123
12124
12125
12126
12127
12128
12129
12130
12131
12132
12133
12134
12135
12136
12137
12138
12139
12140
12141
12142
12143
12144
12145
12146
12147
12148
12149
12150
12151
12152
12153
12154
12155
12156
12157
12158
12159
12160
12161
12162
12163
12164
12165
12166
12167
12168
12169
12170
12171
12172
12173
12174
12175
12176
12177
12178
12179
12180
12181
12182
12183
12184
12185
12186
12187
12188
12189
12190
12191
12192
12193
12194
12195
12196
12197
12198
12199
12200
12201
12202
12203
12204
12205
12206
12207
12208
12209
12210
12211
12212
12213
12214
12215
12216
12217
12218
12219
12220
12221
12222
12223
12224
12225
12226
12227
12228
12229
12230
12231
12232
12233
12234
12235
12236
12237
12238
12239
12240
12241
12242
12243
12244
12245
12246
12247
12248
12249
12250
12251
12252
12253
12254
12255
12256
12257
12258
12259
12260
12261
12262
12263
12264
12265
12266
12267
12268
12269
12270
12271
12272
12273
12274
12275
12276
12277
12278
12279
12280
12281
12282
12283
12284
12285
12286
12287
12288
12289
12290
12291
12292
12293
12294
12295
12296
12297
12298
12299
12300
12301
12302
12303
12304
12305
12306
12307
12308
12309
12310
12311
12312
12313
12314
12315
12316
12317
12318
12319
12320
12321
12322
12323
12324
12325
12326
12327
12328
12329
12330
12331
12332
12333
12359
12360
12361
12362
12363
12364
12365
12366
12367
12368
12369
12370
12371
12372
12373
12374
12375
12376
12377
12378
12379
12380
12381
12382
12383
12404
12405
12406
12407
12408
12409
12410
12411
12412
12413
12414
12415
12416
12417
12418
12419
12420
12421
12422
12423
12444
12445
12446
12447
12448
12449
12450
12451
12452
12453
12454
12455
12456
12457
12458
12459
12460
12461
12462
12463
12484
12485
12486
12487
12488
12489
12490
12491
12492
12493
12494
12495
12496
12497
12498
12499
12500
12501
12502
12503
12520
12521
12522
12523
12524
12525
12526
12527
12528
12529
12530
12531
12532
12533
12534
12535
12552
12553
12554
12555
12556
12557
12558
12559
12560
12561
12562
12563
12564
12565
12566
12567
12588
12589
12590
12591
12592
12593
12594
12595
12596
12597
12598
12599
12600
12601
12602
12603
12604
12605
12606
12607
12624
12625
12626
12627
12628
12629
12630
12631
12632
12633
12634
12635
12636
12637
12638
12639
12656
12657
12658
12659
12660
12661
12662
12663
12664
12665
12666
12667
12668
12669
12670
12671
12678
12681
12685
12686
12691
12693
12697
12699
12703
12707
12709
12712
12713
12716
12718
12722
12724
12728
12731
12733
12737
12741
12743
12745
12747
12749
12750
12751
12752
12753
12754
12755
12756
12757
12758
12759
12760
12761
12762
12763
12764
12765
12766
12767
12768
12769
12770
12771
12772
12773
12774
12775
12776
12777
12778
12779
12780
12781
12782
12783
12784
12785
12786
12787
12788
12789
12790
12791
12792
12793
12794
12795
12796
12797
12798
12802
12804
12808
12812
12814
12818
12821
12823
12826
12828
12832
12834
12838
12841
12843
12847
12851
12853
12855
12857
12859
12860
12861
12862
12863
12864
12865
12866
12867
12868
12869
12870
12871
12872
12873
12874
12875
12876
12877
12878
12879
12880
12881
12882
12883
12884
12885
12886
12887
12888
12889
12890
12891
12892
12893
12894
12895
12896
12897
12898
12902
12904
12908
12912
12914
12918
12921
12923
12926
12928
12932
12934
12938
12941
12942
12945
12948
12950
12952
12953
12954
12955
12956
12957
12958
12959
12960
12961
12962
12963
12964
12965
12966
12967
12968
12969
12970
12971
12972
12973
12974
12975
12976
12977
12978
12979
12980
12981
12982
12983
12984
12985
12986
12987
12988
12993
12996
13000
13001
13006
13008
13012
13014
13018
13021
13022
13024
13028
13030
13034
13037
13039
13043
13046
13047
13049
13050
13051
13052
13053
13054
13055
13056
13057
13058
13059
13060
13061
13062
13063
13064
13065
13066
13067
13068
13069
13070
13071
13072
13073
13074
13075
13076
13077
13078
13079
13080
13081
13082
13083
13084
13085
13086
13087
13088
13092
13094
13098
13102
13104
13108
13110
13112
13116
13118
13122
13125
13127
13131
13134
13135
13137
13138
13139
13140
13141
13142
13143
13144
13145
13146
13147
13148
13149
13150
13151
13152
13153
13154
13155
13156
13157
13158
13159
13160
13161
13162
13163
13164
13165
13166
13167
13168
13172
13174
13178
13182
13184
13188
13190
13192
13196
13198
13202
13205
13206
13209
13211
13212
13213
13214
13215
13216
13217
13218
13219
13220
13221
13222
13223
13224
13225
13226
13227
13228
13229
13230
13231
13232
13233
13234
13235
13236
13237
13238
13239
13240
13245
13248
13251
13252
13256
13258
13262
13264
13267
13270
13271
13273
13277
13279
13282
13285
13287
13290
13293
13294
13296
13297
13298
13299
13300
13301
13302
13303
13304
13305
13306
13307
13308
13309
13310
13311
13312
13313
13314
13315
13316
13317
13318
13319
13320
13321
13322
13323
13324
13325
13326
13327
13328
13329
13330
13334
13336
13339
13343
13345
13348
13350
13352
13356
13358
13361
13364
13366
13369
13372
13373
13375
13376
13377
13378
13379
13380
13381
13382
13383
13384
13385
13386
13387
13388
13389
13390
13391
13392
13393
13394
13395
13396
13397
13398
13399
13400
13401
13402
13406
13408
13411
13415
13417
13420
13422
13424
13428
13430
13433
13436
13437
13439
13441
13442
13443
13444
13445
13446
13447
13448
13449
13450
13451
13452
13453
13454
13455
13456
13457
13458
13459
13460
13461
13462
13463
13464
13465
13466
13467
13468
13469
13470
13473
13475
13477
13478
13479
13480
13481
13482
13484
13486
13487
13488
13490
13492
13493
13494
13496
13497
13498
13499
13500
13502
13504
13505
13506
13508
13509
13510
13512
13514
13515
13516
13518
13519
13520
13521
13522
13523
13524
13525
13526
13527
13528
13529
13530
13531
13532
13533
13534
13535
13537
13539
13540
13541
13543
13544
13546
13548
13549
13550
13552
13553
13554
13555
13557
13559
13560
13561
13563
13564
13565
13567
13569
13570
13571
13573
13574
13575
13576
13577
13578
13579
13580
13581
13582
13583
13584
13585
13586
13587
13589
13591
13592
13593
13595
13596
13598
13600
13601
13602
13604
13605
13606
13607
13609
13611
13612
13613
13615
13616
13617
13618
13619
13620
13621
13622
13623
13624
13625
13626
13627
13628
13629
13632
13634
13636
13637
13638
13640
13642
13643
13644
13645
13647
13649
13650
13651
13653
13655
13656
13657
13659
13661
13662
13664
13666
13667
13668
13669
13670
13672
13673
13674
13676
13678
13679
13680
13682
13684
13685
13686
13688
13690
13691
13692
13694
13696
13698
13699
13700
13701
13703
13704
13705
13706
13707
13708
13709
13710
13711
13712
13713
13714
13715
13716
13717
13718
13719
13720
13721
13722
13723
13724
13725
13726
13727
13728
13729
13731
13733
13734
13735
13737
13739
13740
13742
13744
13745
13746
13748
13750
13751
13753
13754
13755
13757
13758
13759
13761
13763
13764
13765
13767
13769
13770
13771
13773
13775
13776
13777
13779
13781
13783
13784
13785
13786
13788
13789
13790
13791
13792
13793
13794
13795
13796
13797
13798
13799
13800
13801
13802
13803
13804
13805
13806
13807
13808
13809
13811
13813
13814
13815
13817
13819
13820
13822
13824
13825
13826
13828
13830
13831
13833
13834
13835
13837
13838
13839
13841
13843
13844
13845
13847
13849
13850
13851
13852
13853
13854
13856
13857
13858
13859
13860
13861
13862
13863
13864
13865
13866
13867
13868
13869
13870
13871
13872
13873
13874
13877
13879
13881
13882
13884
13886
13887
13888
13889
13890
13892
13894
13895
13896
13898
13900
13901
13903
13904
13906
13907
13908
13909
13910
13912
13914
13915
13917
13918
13920
13921
13922
13924
13926
13927
13928
13930
13932
13933
13934
13935
13936
13937
13938
13939
13940
13941
13942
13943
13944
13945
13946
13947
13948
13949
13950
13951
13952
13953
13954
13956
13958
13959
13961
13962
13964
13965
13967
13969
13970
13972
13973
13975
13976
13977
13978
13980
13982
13983
13985
13986
13988
13989
13990
13992
13994
13995
13996
13998
14000
14001
14002
14003
14004
14005
14006
14007
14008
14009
14010
14011
14012
14013
14014
14015
14016
14017
14018
14020
14022
14023
14025
14026
14028
14029
14031
14033
14034
14035
14037
14039
14040
14041
14042
14043
14045
14047
14048
14049
14051
14053
14054
14055
14056
14057
14058
14059
14060
14061
14062
14063
14064
14065
14066
14067
14068
14069
14070
14071
14072
14073
14074
14075
14076
14077
14078
14079
14080
14081
14082
14083
14084
14085
14086
14087
14088
14089
14090
14091
14092
14093
14094
14095
14096
14097
14098
14099
14100
14101
14102
14103
14104
14105
14106
14107
14108
14109
14110
14111
14112
14113
14114
14115
14116
14117
14118
14119
14120
14121
14122
14123
14124
14125
14126
14127
14128
14129
14130
14131
14132
14133
14134
14135
14136
14137
14138
14139
14140
14141
14142
14143
14144
14145
14146
14147
14148
14149
14150
14151
14152
14153
14154
14155
14156
14157
14158
14159
14160
14161
14162
14163
14164
14165
14166
14167
14168
14169
14170
14171
14172
14173
14174
14175
14176
14177
14178
14179
14180
14181
14182
14183
14184
14185
14186
14187
14188
14189
14190
14191
14192
14193
14194
14195
14196
14197
14198
14199
14200
14201
14202
14203
14204
14205
14206
14207
14208
14209
14210
14211
14212
14213
14214
14215
14216
14223
14224
14225
14226
14231
14232
14233
14236
14247
14255
14256
14259
14260
14261
14262
14271
14276
14277
14278
14279
14280
14281
14282
14283
14284
14285
14287
14290
14291
14293
14294
14300
14301
14303
14304
14311
14312
14314
14315
14320
14321
14323
14324
14326
14327
14334
14335
14336
14337
14340
14341
14343
14344
14349
14350
14352
14353
14354
14361
14362
14363
14386
14387
14392
14393
14394
14395
14396
14397
14407
14408
14411
14412
14424
14425
14429
14430
14438
14439
14440
14441
14442
14445
14450
14451
14452
14457
14458
14460
14461
14462
14463
14464
14465
14467
14468
14469
14470
14471
14472
14485
14486
14489
14490
14496
14497
14504
14505
14514
14518
14519
14520
14521
14522
14523
14525
14526
14527
14528
14529
14530
14531
14532
14534
14535
14536
14539
14540
14541
14543
14544
14547
14548
14550
14551
14552
14553
14554
14555
14557
14558
14559
14560
14561
14562
14566
14568
14571
14572
14574
14575
14580
14581
14582
14583
14584
14585
14586
14587
14591
14601
14602
14603
14604
14605
14606
14608
14609
14610
14611
14612
14613
14614
14615
14616
14617
14618
14619
14620
14621
14622
14628
14629
14631
14632
14634
14635
14636
14637
14638
14639
14640
14644
14645
14646
14658
14659
14660
14661
14662
14663
14664
14665
14681
14682
14683
14684
14685
14686
14687
14707
14708
14709
14710
14711
14712
14713
14714
14715
14730
14731
14732
14733
14734
14735
14736
14737
14738
14739
14740
14741
14761
14762
14763
14765
14773
14774
14775
14776
14777
14778
14779
14792