# vtk DataFile Version 3.0
vtk output
ASCII
DATASET UNSTRUCTURED_GRID
FIELD FieldData 2
TIME 1 1 double
0
CYCLE 1 1 int
0
POINTS 344 float
10 9 0
10 6 0
10 3 0
10 17 0
10 20 0
10 14 0
10 19 0
10 16 0
10 13 0
10 10 0
10 7 3.69279e-17
10 4 1.84639e-17
10 20 1
10 18 1
0 18 1
0 20 1
10 20 -1
10 18 -1
0 18 -1
0 20 -1
10 17 1
10 15 1
0 15 1
0 17 1
5 15 1
5 17 1
5 15 -1
0 15 -1
0 17 -1
5 17 -1
10 17 -1
10 15 -1
10 14 1
10 12 1
0 12 1
0 14 1
7.5 12 1
2.5 14 1
7.5 12 -1
0 12 -1
0 14 -1
2.5 14 -1
10 14 -1
10 12 -1
0 9 -1
2 9 -1
4 9 -1
6 9 -1
8 9 -1
10 9 -1
0 11 -1
2 11 -1
4 11 -1
6 11 -1
8 11 -1
10 11 -1
0 9 1
2 9 1
2 11 1
0 11 1
4 9 1
4 11 1
6 9 1
6 11 1
8 9 1
8 11 1
10 9 1
10 11 1
0 6 -1
1 6 -1
2 6 -1
3 6 -1
4 6 -1
5 6 -1
6 6 -1
7 6 -1
8 6 -1
9 6 -1
10 6 -1
0 7 -1
1 7 -1
2 7 -1
3 7 -1
4 7 -1
5 7 -1
6 7 -1
7 7 -1
8 7 -1
9 7 -1
10 7 -1
0 8 -1
1 8 -1
2 8 -1
3 8 -1
4 8 -1
5 8 -1
6 8 -1
7 8 -1
8 8 -1
9 8 -1
10 8 -1
0 6 1
1 6 1
1 7 1
0 7 1
2 6 1
2 7 1
3 6 1
3 7 1
4 6 1
4 7 1
5 6 1
5 7 1
6 6 1
6 7 1
7 6 1
7 7 1
8 6 1
8 7 1
9 6 1
9 7 1
10 6 1
10 7 1
1 8 1
0 8 1
2 8 1
3 8 1
4 8 1
5 8 1
6 8 1
7 8 1
8 8 1
9 8 1
10 8 1
0 3 -1
0.5 3 -1
1 3 -1
1.5 3 -1
2 3 -1
2.5 3 -1
3 3 -1
3.5 3 -1
4 3 -1
4.5 3 -1
5 3 -1
5.5 3 -1
6 3 -1
6.5 3 -1
7 3 -1
7.5 3 -1
8 3 -1
8.5 3 -1
9 3 -1
9.5 3 -1
10 3 -1
0 3.5 -1
0.5 3.5 -1
1 3.5 -1
1.5 3.5 -1
2 3.5 -1
2.5 3.5 -1
3 3.5 -1
3.5 3.5 -1
4 3.5 -1
4.5 3.5 -1
5 3.5 -1
5.5 3.5 -1
6 3.5 -1
6.5 3.5 -1
7 3.5 -1
7.5 3.5 -1
8 3.5 -1
8.5 3.5 -1
9 3.5 -1
9.5 3.5 -1
10 3.5 -1
0 4 -1
0.5 4 -1
1 4 -1
1.5 4 -1
2 4 -1
2.5 4 -1
3 4 -1
3.5 4 -1
4 4 -1
4.5 4 -1
5 4 -1
5.5 4 -1
6 4 -1
6.5 4 -1
7 4 -1
7.5 4 -1
8 4 -1
8.5 4 -1
9 4 -1
9.5 4 -1
10 4 -1
0 4.5 -1
0.5 4.5 -1
1 4.5 -1
1.5 4.5 -1
2 4.5 -1
2.5 4.5 -1
3 4.5 -1
3.5 4.5 -1
4 4.5 -1
4.5 4.5 -1
5 4.5 -1
5.5 4.5 -1
6 4.5 -1
6.5 4.5 -1
7 4.5 -1
7.5 4.5 -1
8 4.5 -1
8.5 4.5 -1
9 4.5 -1
9.5 4.5 -1
10 4.5 -1
0 5 -1
0.5 5 -1
1 5 -1
1.5 5 -1
2 5 -1
2.5 5 -1
3 5 -1
3.5 5 -1
4 5 -1
4.5 5 -1
5 5 -1
5.5 5 -1
6 5 -1
6.5 5 -1
7 5 -1
7.5 5 -1
8 5 -1
8.5 5 -1
9 5 -1
9.5 5 -1
10 5 -1
0 3 1
0.5 3 1
0.5 3.5 1
0 3.5 1
1 3 1
1 3.5 1
1.5 3 1
1.5 3.5 1
2 3 1
2 3.5 1
2.5 3 1
2.5 3.5 1
3 3 1
3 3.5 1
3.5 3 1
3.5 3.5 1
4 3 1
4 3.5 1
4.5 3 1
4.5 3.5 1
5 3 1
5 3.5 1
5.5 3 1
5.5 3.5 1
6 3 1
6 3.5 1
6.5 3 1
6.5 3.5 1
7 3 1
7 3.5 1
7.5 3 1
7.5 3.5 1
8 3 1
8 3.5 1
8.5 3 1
8.5 3.5 1
9 3 1
9 3.5 1
9.5 3 1
9.5 3.5 1
10 3 1
10 3.5 1
0.5 4 1
0 4 1
1 4 1
1.5 4 1
2 4 1
2.5 4 1
3 4 1
3.5 4 1
4 4 1
4.5 4 1
5 4 1
5.5 4 1
6 4 1
6.5 4 1
7 4 1
7.5 4 1
8 4 1
8.5 4 1
9 4 1
9.5 4 1
10 4 1
0.5 4.5 1
0 4.5 1
1 4.5 1
1.5 4.5 1
2 4.5 1
2.5 4.5 1
3 4.5 1
3.5 4.5 1
4 4.5 1
4.5 4.5 1
5 4.5 1
5.5 4.5 1
6 4.5 1
6.5 4.5 1
7 4.5 1
7.5 4.5 1
8 4.5 1
8.5 4.5 1
9 4.5 1
9.5 4.5 1
10 4.5 1
0.5 5 1
0 5 1
1 5 1
1.5 5 1
2 5 1
2.5 5 1
3 5 1
3.5 5 1
4 5 1
4.5 5 1
5 5 1
5.5 5 1
6 5 1
6.5 5 1
7 5 1
7.5 5 1
8 5 1
8.5 5 1
9 5 1
9.5 5 1
10 5 1

CELLS 142 1086
2 6 12
2 6 13
2 6 16
2 6 17
2 7 20
2 7 21
2 7 30
2 7 31
2 8 32
2 8 33
2 8 42
2 8 43
2 9 49
2 9 55
2 9 66
2 9 67
2 10 78
2 10 89
2 10 100
2 10 121
2 10 122
2 10 133
2 11 154
2 11 175
2 11 196
2 11 217
2 11 238
2 11 279
2 11 280
2 11 301
2 11 322
2 11 343
8 12 13 14 15 16 17 18 19
8 24 22 23 25 26 27 28 29
8 25 20 21 24 29 30 31 26
8 36 34 35 37 38 39 40 41
8 37 32 33 36 41 42 43 38
8 44 45 51 50 56 57 58 59
8 45 46 52 51 57 60 61 58
8 46 47 53 52 60 62 63 61
8 47 48 54 53 62 64 65 63
8 48 49 55 54 64 66 67 65
8 68 69 80 79 101 102 103 104
8 79 80 91 90 104 103 123 124
8 69 70 81 80 102 105 106 103
8 70 71 82 81 105 107 108 106
8 71 72 83 82 107 109 110 108
8 72 73 84 83 109 111 112 110
8 73 74 85 84 111 113 114 112
8 74 75 86 85 113 115 116 114
8 75 76 87 86 115 117 118 116
8 76 77 88 87 117 119 120 118
8 77 78 89 88 119 121 122 120
8 80 81 92 91 103 106 125 123
8 81 82 93 92 106 108 126 125
8 82 83 94 93 108 110 127 126
8 83 84 95 94 110 112 128 127
8 84 85 96 95 112 114 129 128
8 85 86 97 96 114 116 130 129
8 86 87 98 97 116 118 131 130
8 87 88 99 98 118 120 132 131
8 88 89 100 99 120 122 133 132
8 134 135 156 155 239 240 241 242
8 135 136 157 156 240 243 244 241
8 136 137 158 157 243 245 246 244
8 137 138 159 158 245 247 248 246
8 138 139 160 159 247 249 250 248
8 139 140 161 160 249 251 252 250
8 140 141 162 161 251 253 254 252
8 155 156 177 176 242 241 281 282
8 156 157 178 177 241 244 283 281
8 157 158 179 178 244 246 284 283
8 158 159 180 179 246 248 285 284
8 159 160 181 180 248 250 286 285
8 160 161 182 181 250 252 287 286
8 176 177 198 197 282 281 302 303
8 177 178 199 198 281 283 304 302
8 178 179 200 199 283 284 305 304
8 179 180 201 200 284 285 306 305
8 180 181 202 201 285 286 307 306
8 181 182 203 202 286 287 308 307
8 197 198 219 218 303 302 323 324
8 198 199 220 219 302 304 325 323
8 199 200 221 220 304 305 326 325
8 200 201 222 221 305 306 327 326
8 201 202 223 222 306 307 328 327
8 202 203 224 223 307 308 329 328
8 147 148 169 168 265 267 268 266
8 148 149 170 169 267 269 270 268
8 149 150 171 170 269 271 272 270
8 150 151 172 171 271 273 274 272
8 151 152 173 172 273 275 276 274
8 152 153 174 173 275 277 278 276
8 153 154 175 174 277 279 280 278
8 168 169 190 189 266 268 295 294
8 169 170 191 190 268 270 296 295
8 170 171 192 191 270 272 297 296
8 171 172 193 192 272 274 298 297
8 172 173 194 193 274 276 299 298
8 173 174 195 194 276 278 300 299
8 174 175 196 195 278 280 301 300
8 189 190 211 210 294 295 316 315
8 190 191 212 211 295 296 317 316
8 191 192 213 212 296 297 318 317
8 192 193 214 213 297 298 319 318
8 193 194 215 214 298 299 320 319
8 194 195 216 215 299 300 321 320
8 195 196 217 216 300 301 322 321
8 210 211 232 231 315 316 337 336
8 211 212 233 232 316 317 338 337
8 212 213 234 233 317 318 339 338
8 213 214 235 234 318 319 340 339
8 214 215 236 235 319 320 341 340
8 215 216 237 236 320 321 342 341
8 216 217 238 237 321 322 343 342
8 141 142 163 162 253 255 256 254
8 142 143 164 163 255 257 258 256
8 143 144 165 164 257 259 260 258
8 144 145 166 165 259 261 262 260
8 145 146 167 166 261 263 264 262
8 146 147 168 167 263 265 266 264
8 161 162 183 182 252 254 288 287
8 162 163 184 183 254 256 289 288
8 163 164 185 184 256 258 290 289
8 164 165 186 185 258 260 291 290
8 165 166 187 186 260 262 292 291
8 166 167 188 187 262 264 293 292
8 167 168 189 188 264 266 294 293
8 182 183 204 203 287 288 309 308
8 183 184 205 204 288 289 310 309
8 184 185 206 205 289 290 311 310
8 185 186 207 206 290 291 312 311
8 186 187 208 207 291 292 313 312
8 187 188 209 208 292 293 314 313
8 188 189 210 209 293 294 315 314
8 203 204 225 224 308 309 330 329
8 204 205 226 225 309 310 331 330
8 205 206 227 226 310 311 332 331
8 206 207 228 227 311 312 333 332
8 207 208 229 228 312 313 334 333
8 208 209 230 229 313 314 335 334
8 209 210 231 230 314 315 336 335

CELL_TYPES 142
3
3
3
3
3
3
3
3
3
3
3
3
3
3
3
3
3
3
3
3
3
3
3
3
3
3
3
3
3
3
3
3
12
12
12
12
12
12
12
12
12
12
12
12
12
12
12
12
12
12
12
12
12
12
12
12
12
12
12
12
12
12
12
12
12
12
12
12
12
12
12
12
12
12
12
12
12
12
12
12
12
12
12
12
12
12
12
12
12
12
12
12
12
12
12
12
12
12
12
12
12
12
12
12
12
12
12
12
12
12
12
12
12
12
12
12
12
12
12
12
12
12
12
12
12
12
12
12
12
12
12
12
12
12
12
12
12
12
12
12
12
12

POINT_DATA 344
SCALARS NODE_ID int 1
LOOKUP_TABLE default
6
23
66
606
660
1115
1457
1458
1459
1460
1461
1462
1795
1796
1797
1798
1799
1800
1801
1802
1803
1804
1805
1806
1807
1808
1809
1810
1811
1812
1813
1814
1815
1816
1817
1818
1819
1820
1821
1822
1823
1824
1825
1826
1827
1828
1829
1830
1831
1832
1833
1834
1835
1836
1837
1838
1839
1840
1841
1842
1843
1844
1845
1846
1847
1848
1849
1850
1851
1852
1853
1854
1855
1856
1857
1858
1859
1860
1861
1862
1863
1864
1865
1866
1867
1868
1869
1870
1871
1872
1873
1874
1875
1876
1877
1878
1879
1880
1881
1882
1883
1884
1885
1886
1887
1888
1889
1890
1891
1892
1893
1894
1895
1896
1897
1898
1899
1900
1901
1902
1903
1904
1905
1906
1907
1908
1909
1910
1911
1912
1913
1914
1915
1916
1917
1918
1919
1920
1921
1922
1923
1924
1925
1926
1927
1928
1929
1930
1931
1932
1933
1934
1935
1936
1937
1938
1939
1940
1941
1942
1943
1944
1945
1946
1947
1948
1949
1950
1951
1952
1953
1954
1955
1956
1957
1958
1959
1960
1961
1962
1963
1964
1965
1966
1967
1968
1969
1970
1971
1972
1973
1974
1975
1976
1977
1978
1979
1980
1981
1982
1983
1984
1985
1986
1987
1988
1989
1990
1991
1992
1993
1994
1995
1996
1997
1998
1999
2000
2001
2002
2003
2004
2005
2006
2007
2008
2009
2010
2011
2012
2013
2014
2015
2016
2017
2018
2019
2020
2021
2022
2023
2024
2025
2026
2027
2028
2029
2030
2031
2032
2033
2034
2035
2036
2037
2038
2039
2040
2041
2042
2043
2044
2045
2046
2047
2048
2049
2050
2051
2052
2053
2054
2055
2056
2057
2058
2059
2060
2061
2062
2063
2064
2065
2066
2067
2068
2069
2070
2071
2072
2073
2074
2075
2076
2077
2078
2079
2080
2081
2082
2083
2084
2085
2086
2087
2088
2089
2090
2091
2092
2093
2094
2095
2096
2097
2098
2099
2100
2101
2102
2103
2104
2105
2106
2107
2108
2109
2110
2111
2112
2113
2114
2115
2116
2117
2118
2119
2120
2121
2122
2123
2124
2125
2126

VECTORS Velocity float
0 0 0
0 0 0
0 0 0
0 0 0
0 0 0
0 0 0
0 0 0
0 0 0
0 0 0
0 0 0
0 0 0
0 0 0
0 0 0
0 0 0
0 0 0
0 0 0
0 0 0
0 0 0
0 0 0
0 0 0
0 0 0
0 0 0
0 0 0
0 0 0
0 0 0
0 0 0
0 0 0
0 0 0
0 0 0
0 0 0
0 0 0
0 0 0
0 0 0
0 0 0
0 0 0
0 0 0
0 0 0
0 0 0
0 0 0
0 0 0
0 0 0
0 0 0
0 0 0
0 0 0
0 0 0
0 0 0
0 0 0
0 0 0
0 0 0
0 0 0
0 0 0
0 0 0
0 0 0
0 0 0
0 0 0
0 0 0
0 0 0
0 0 0
0 0 0
0 0 0
0 0 0
0 0 0
0 0 0
0 0 0
0 0 0
0 0 0
0 0 0
0 0 0
0 0 0
0 0 0
0 0 0
0 0 0
0 0 0
0 0 0
0 0 0
0 0 0
0 0 0
0 0 0
0 0 0
0 0 0
0 0 0
0 0 0
0 0 0
0 0 0
0 0 0
0 0 0
0 0 0
0 0 0
0 0 0
0 0 0
0 0 0
0 0 0
0 0 0
0 0 0
0 0 0
0 0 0
0 0 0
0 0 0
0 0 0
0 0 0
0 0 0
0 0 0
0 0 0
0 0 0
0 0 0
0 0 0
0 0 0
0 0 0
0 0 0
0 0 0
0 0 0
0 0 0
0 0 0
0 0 0
0 0 0
0 0 0
0 0 0
0 0 0
0 0 0
0 0 0
0 0 0
0 0 0
0 0 0
0 0 0
0 0 0
0 0 0
0 0 0
0 0 0
0 0 0
0 0 0
0 0 0
0 0 0
0 0 0
0 0 0
0 0 0
0 0 0
0 0 0
0 0 0
0 0 0
0 0 0
0 0 0
0 0 0
0 0 0
0 0 0
0 0 0
0 0 0
0 0 0
0 0 0
0 0 0
0 0 0
0 0 0
0 0 0
0 0 0
0 0 0
0 0 0
0 0 0
0 0 0
0 0 0
0 0 0
0 0 0
0 0 0
0 0 0
0 0 0
0 0 0
0 0 0
0 0 0
0 0 0
0 0 0
0 0 0
0 0 0
0 0 0
0 0 0
0 0 0
0 0 0
0 0 0
0 0 0
0 0 0
0 0 0
0 0 0
0 0 0
0 0 0
0 0 0
0 0 0
0 0 0
0 0 0
0 0 0
0 0 0
0 0 0
0 0 0
0 0 0
0 0 0
0 0 0
0 0 0
0 0 0
0 0 0
0 0 0
0 0 0
0 0 0
0 0 0
0 0 0
0 0 0
0 0 0
0 0 0
0 0 0
0 0 0
0 0 0
0 0 0
0 0 0
0 0 0
0 0 0
0 0 0
0 0 0
0 0 0
0 0 0
0 0 0
0 0 0
0 0 0
0 0 0
0 0 0
0 0 0
0 0 0
0 0 0
0 0 0
0 0 0
0 0 0
0 0 0
0 0 0
0 0 0
0 0 0
0 0 0
0 0 0
0 0 0
0 0 0
0 0 0
0 0 0
0 0 0
0 0 0
0 0 0
0 0 0
0 0 0
0 0 0
0 0 0
0 0 0
0 0 0
0 0 0
0 0 0
0 0 0
0 0 0
0 0 0
0 0 0
0 0 0
0 0 0
0 0 0
0 0 0
0 0 0
0 0 0
0 0 0
0 0 0
0 0 0
0 0 0
0 0 0
0 0 0
0 0 0
0 0 0
0 0 0
0 0 0
0 0 0
0 0 0
0 0 0
0 0 0
0 0 0
0 0 0
0 0 0
0 0 0
0 0 0
0 0 0
0 0 0
0 0 0
0 0 0
0 0 0
0 0 0
0 0 0
0 0 0
0 0 0
0 0 0
0 0 0
0 0 0
0 0 0
0 0 0
0 0 0
0 0 0
0 0 0
0 0 0
0 0 0
0 0 0
0 0 0
0 0 0
0 0 0
0 0 0
0 0 0
0 0 0
0 0 0
0 0 0
0 0 0
0 0 0
0 0 0
0 0 0
0 0 0
0 0 0
0 0 0
0 0 0
0 0 0
0 0 0
0 0 0
0 0 0
0 0 0
0 0 0
0 0 0
0 0 0
0 0 0
0 0 0
0 0 0
0 0 0
0 0 0
0 0 0
0 0 0
0 0 0
0 0 0
0 0 0
0 0 0
0 0 0
0 0 0
0 0 0
0 0 0
0 0 0
0 0 0
0 0 0
0 0 0
0 0 0
0 0 0
0 0 0
0 0 0
0 0 0
0 0 0

CELL_DATA 142
SCALARS ELEMENT_ID int 1
LOOKUP_TABLE default
0
0
0
0
0
0
0
0
0
0
0
0
0
0
0
0
0
0
0
0
0
0
0
0
0
0
0
0
0
0
0
0
829
830
831
832
833
834
835
836
837
838
839
849
840
841
842
843
844
845
846
847
848
850
851
852
853
854
855
856
857
858
859
860
861
862
863
864
865
879
880
881
882
883
884
899
900
901
902
903
904
919
920
921
922
923
924
872
873
874
875
876
877
878
892
893
894
895
896
897
898
912
913
914
915
916
917
918
932
933
934
935
936
937
938
866
867
868
869
870
871
885
886
887
888
889
890
891
905
906
907
908
909
910
911
925
926
927
928
929
930
931

SCALARS PART_ID int 1
LOOKUP_TABLE default
713
713
713
713
714
714
714
714
715
715
715
715
716
716
716
716
717
717
717
717
717
717
718
718
718
718
718
718
718
718
718
718
15
16
16
17
17
18
18
18
18
18
19
19
19
19
19
19
19
19
19
19
19
19
19
19
19
19
19
19
19
19
20
20
20
20
20
20
20
20
20
20
20
20
20
20
20
20
20
20
20
20
20
20
20
20
20
20
20
20
20
20
20
20
20
20
20
20
20
20
20
20
20
20
20
20
20
20
20
20
20
20
20
20
20
20
20
20
20
20
20
20
20
20
20
20
20
20
20
20
20
20
20
20
20
20
20
20
20
20
20
20

SCALARS EROSION_STATUS int 1
LOOKUP_TABLE default
1
1
1
1
1
1
1
1
1
1
1
1
1
1
1
1
1
1
1
1
1
1
1
1
1
1
1
1
1
1
1
1
1
1
1
1
1
1
1
1
1
1
1
1
1
1
1
1
1
1
1
1
1
1
1
1
1
1
1
1
1
1
1
1
1
1
1
1
1
1
1
1
1
1
1
1
1
1
1
1
1
1
1
1
1
1
1
1
1
1
1
1
1
1
1
1
1
1
1
1
1
1
1
1
1
1
1
1
1
1
1
1
1
1
1
1
1
1
1
1
1
1
1
1
1
1
1
1
1
1
1
1
1
1
1
1
1
1
1
1
1
1

SCALARS 1DELEM_Plastic_Strain float 1
LOOKUP_TABLE default
0
0
0
0
0
0
0
0
0
0
0
0
0
0
0
0
0
0
0
0
0
0
0
0
0
0
0
0
0
0
0
0
0
0
0
0
0
0
0
0
0
0
0
0
0
0
0
0
0
0
0
0
0
0
0
0
0
0
0
0
0
0
0
0
0
0
0
0
0
0
0
0
0
0
0
0
0
0
0
0
0
0
0
0
0
0
0
0
0
0
0
0
0
0
0
0
0
0
0
0
0
0
0
0
0
0
0
0
0
0
0
0
0
0
0
0
0
0
0
0
0
0
0
0
0
0
0
0
0
0
0
0
0
0
0
0
0
0
0
0
0
0

SCALARS 1DELEM_Specific_Energy float 1
LOOKUP_TABLE default
0
0
0
0
0
0
0
0
0
0
0
0
0
0
0
0
0
0
0
0
0
0
0
0
0
0
0
0
0
0
0
0
0
0
0
0
0
0
0
0
0
0
0
0
0
0
0
0
0
0
0
0
0
0
0
0
0
0
0
0
0
0
0
0
0
0
0
0
0
0
0
0
0
0
0
0
0
0
0
0
0
0
0
0
0
0
0
0
0
0
0
0
0
0
0
0
0
0
0
0
0
0
0
0
0
0
0
0
0
0
0
0
0
0
0
0
0
0
0
0
0
0
0
0
0
0
0
0
0
0
0
0
0
0
0
0
0
0
0
0
0
0

SCALARS 1DELEM_Von_Mises float 1
LOOKUP_TABLE default
0
0
0
0
0
0
0
0
0
0
0
0
0
0
0
0
0
0
0
0
0
0
0
0
0
0
0
0
0
0
0
0
0
0
0
0
0
0
0
0
0
0
0
0
0
0
0
0
0
0
0
0
0
0
0
0
0
0
0
0
0
0
0
0
0
0
0
0
0
0
0
0
0
0
0
0
0
0
0
0
0
0
0
0
0
0
0
0
0
0
0
0
0
0
0
0
0
0
0
0
0
0
0
0
0
0
0
0
0
0
0
0
0
0
0
0
0
0
0
0
0
0
0
0
0
0
0
0
0
0
0
0
0
0
0
0
0
0
0
0
0
0

SCALARS 3DELEM_Plastic_Strain float 1
LOOKUP_TABLE default
0
0
0
0
0
0
0
0
0
0
0
0
0
0
0
0
0
0
0
0
0
0
0
0
0
0
0
0
0
0
0
0
0
0
0
0
0
0
0
0
0
0
0
0
0
0
0
0
0
0
0
0
0
0
0
0
0
0
0
0
0
0
0
0
0
0
0
0
0
0
0
0
0
0
0
0
0
0
0
0
0
0
0
0
0
0
0
0
0
0
0
0
0
0
0
0
0
0
0
0
0
0
0
0
0
0
0
0
0
0
0
0
0
0
0
0
0
0
0
0
0
0
0
0
0
0
0
0
0
0
0
0
0
0
0
0
0
0
0
0
0
0

SCALARS 3DELEM_Specific_Energy float 1
LOOKUP_TABLE default
0
0
0
0
0
0
0
0
0
0
0
0
0
0
0
0
0
0
0
0
0
0
0
0
0
0
0
0
0
0
0
0
0
0
0
0
0
0
0
0
0
0
0
0
0
0
0
0
0
0
0
0
0
0
0
0
0
0
0
0
0
0
0
0
0
0
0
0
0
0
0
0
0
0
0
0
0
0
0
0
0
0
0
0
0
0
0
0
0
0
0
0
0
0
0
0
0
0
0
0
0
0
0
0
0
0
0
0
0
0
0
0
0
0
0
0
0
0
0
0
0
0
0
0
0
0
0
0
0
0
0
0
0
0
0
0
0
0
0
0
0
0

SCALARS 3DELEM_Von_Mises float 1
LOOKUP_TABLE default
0
0
0
0
0
0
0
0
0
0
0
0
0
0
0
0
0
0
0
0
0
0
0
0
0
0
0
0
0
0
0
0
0
0
0
0
0
0
0
0
0
0
0
0
0
0
0
0
0
0
0
0
0
0
0
0
0
0
0
0
0
0
0
0
0
0
0
0
0
0
0
0
0
0
0
0
0
0
0
0
0
0
0
0
0
0
0
0
0
0
0
0
0
0
0
0
0
0
0
0
0
0
0
0
0
0
0
0
0
0
0
0
0
0
0
0
0
0
0
0
0
0
0
0
0
0
0
0
0
0
0
0
0
0
0
0
0
0
0
0
0
0

SCALARS 3DELEM_Hourglass_Energy float 1
LOOKUP_TABLE default
0
0
0
0
0
0
0
0
0
0
0
0
0
0
0
0
0
0
0
0
0
0
0
0
0
0
0
0
0
0
0
0
0
0
0
0
0
0
0
0
0
0
0
0
0
0
0
0
0
0
0
0
0
0
0
0
0
0
0
0
0
0
0
0
0
0
0
0
0
0
0
0
0
0
0
0
0
0
0
0
0
0
0
0
0
0
0
0
0
0
0
0
0
0
0
0
0
0
0
0
0
0
0
0
0
0
0
0
0
0
0
0
0
0
0
0
0
0
0
0
0
0
0
0
0
0
0
0
0
0
0
0
0
0
0
0
0
0
0
0
0
0

