# vtk DataFile Version 3.0
vtk output
ASCII
DATASET UNSTRUCTURED_GRID
FIELD FieldData 2
TIME 1 1 double
0.00200038
CYCLE 1 1 int
0
POINTS 344 float
9.99992 9.00027 0.024515
9.99977 5.99914 0.0175566
9.99996 2.99991 0.0165157
10 16.9999 0.00316533
9.99999 20 0.0391162
9.99848 14.0002 0.187339
9.99999 19.5 0.0393379
10 15.4999 0.00379166
9.99857 12.7503 0.184947
9.99992 10.5003 0.0202437
9.99994 7.24914 0.0197331
9.9999 4.12491 0.0177301
9.99385 20.0004 1.0391
9.99384 18.0004 1.03998
0 18 1
0 20 1
10.0061 19.9995 -0.960865
10.0061 17.9995 -0.959978
0 18 -1
0 20 -1
9.99642 17.0003 1.00316
9.9964 15.0003 1.00399
0 15 1
0 17 1
5.00118 15 0.994524
5.00043 17.0003 0.99409
4.99883 15 -1.00547
0 15 -1
0 17 -1
4.99962 16.9996 -1.00591
10.0037 16.9995 -0.996828
10.0036 14.9995 -0.995993
9.97145 13.9983 1.18697
9.9716 11.9983 1.18315
0 12 1
0 14 1
7.472 11.9993 1.13344
2.4875 14.0005 1.04204
7.52612 12.0011 -0.866096
0 12 -1
0 14 -1
2.51195 13.9996 -0.957877
10.0255 14.0022 -0.812294
10.0256 12.0022 -0.81612
0 9 -1
1.99757 8.99873 -1.00351
3.99947 8.99828 -1.00755
6.00368 8.99786 -1.00474
8.00738 8.99733 -0.993034
10.0086 8.99742 -0.975443
0 11 -1
1.99727 10.9991 -1.00542
3.99888 10.9979 -1.01155
6.0032 10.9971 -1.01012
8.00709 10.9968 -0.999049
10.0086 10.9974 -0.981138
0 9 1
2.00247 9.00127 0.996473
2.00271 11.0009 0.994578
0 11 1
4.00059 9.00185 0.992443
4.00107 11.0022 0.988467
5.99637 9.00245 0.995266
5.99678 11.0032 0.989844
7.9926 9.00311 1.00691
7.99288 11.0036 1.00087
9.99122 9.00312 1.02447
9.99122 11.0031 1.01878
0 6 -1
0.998589 5.99991 -1.00141
1.99784 6.00012 -1.00404
2.99788 6.00049 -1.00714
3.99882 6.00097 -1.00963
5.00048 6.00127 -1.01055
6.0025 6.00138 -1.00931
7.00452 6.00121 -1.00552
8.00651 6.00099 -0.999637
9.00804 6.00093 -0.991758
10.0086 6.00088 -0.982403
0 7 -1
0.998595 7.00014 -1.00134
1.99777 7.00023 -1.00381
2.99785 7.00044 -1.00662
3.99879 7.00068 -1.00875
5.00051 7.00077 -1.00938
6.00261 7.00087 -1.00793
7.00467 7.00077 -1.0041
8.0066 7.00064 -0.998133
9.00815 7.0007 -0.990124
10.0087 7.00088 -0.980662
0 8 -1
0.998622 8.00036 -1.00112
1.99775 8.00039 -1.00346
2.99777 8.00036 -1.00617
3.99884 8.00042 -1.0081
5.00054 8.00024 -1.00866
6.00266 8.00041 -1.00708
7.00476 8.00038 -1.00309
8.00662 8.00021 -0.996988
9.00816 8.0003 -0.988721
10.0089 8.00088 -0.97892
0 6 1
1.0014 6.00006 0.998583
1.00142 6.99983 0.998654
0 7 1
2.00211 5.99977 0.995973
2.00226 6.99967 0.99617
3.00202 5.9993 0.992891
3.00216 6.99936 0.993371
4.00101 5.9987 0.990331
4.00118 6.99901 0.99126
4.99931 5.99825 0.989414
4.99945 6.99877 0.990619
5.99726 5.99799 0.990762
5.99734 6.99849 0.992049
6.99517 5.99792 0.994509
6.99527 6.99836 0.995881
7.99315 5.99784 1.00031
7.99332 6.9982 1.00178
8.99159 5.99764 1.00817
8.99173 6.99787 1.00979
9.99094 5.9974 1.01752
9.99107 6.9974 1.01926
1.00142 7.9996 0.998875
0 8 1
2.00232 7.99951 0.996505
3.00232 7.99945 0.993823
4.00126 7.99927 0.991867
4.99956 7.99929 0.991373
5.99746 7.99895 0.992957
6.99538 7.99874 0.996861
7.99353 7.99863 1.00291
8.99197 7.99828 1.01117
9.99119 7.9974 1.021
0 3 -1
0.499287 2.99983 -1.00044
0.998728 2.99996 -1.00126
1.49826 3.00005 -1.00236
1.99796 3.00009 -1.00374
2.49791 3.00023 -1.00522
2.99803 3.00041 -1.00672
3.49838 3.00065 -1.00814
3.99884 3.00076 -1.00922
4.49949 3.00085 -1.00989
5.00027 3.00095 -1.01019
5.50127 3.00096 -1.00996
6.00238 3.00102 -1.00916
6.50343 3.0011 -1.00775
7.00443 3.0011 -1.00568
7.50536 3.00109 -1.00312
8.00619 3.00105 -0.999953
8.50689 3.00105 -0.99634
9.00747 3.00108 -0.992361
9.50785 3.00104 -0.988023
10.008 3.00099 -0.983452
0 3.5 -1
0.499311 3.49998 -1.00045
0.998702 3.50006 -1.00123
1.49823 3.50012 -1.0023
1.99794 3.50016 -1.00362
2.49785 3.50022 -1.00506
2.99797 3.50037 -1.00652
3.49831 3.50054 -1.00778
3.9988 3.50063 -1.00877
4.49945 3.50068 -1.00944
5.00028 3.50074 -1.0097
5.50126 3.50072 -1.00944
6.00236 3.50076 -1.00864
6.50342 3.50083 -1.00719
7.00444 3.50085 -1.0051
7.50537 3.50088 -1.00252
8.00618 3.50088 -0.999364
8.50686 3.50092 -0.995763
9.00743 3.50095 -0.99181
9.50782 3.50096 -0.987437
10.008 3.50099 -0.982912
0 4 -1
0.499351 4.0001 -1.00037
0.998735 4.00016 -1.00114
1.49824 4.00018 -1.00222
1.99796 4.00021 -1.00348
2.49789 4.00026 -1.00486
2.99797 4.00033 -1.00625
3.49829 4.00045 -1.00746
3.99879 4.00053 -1.00848
4.49945 4.00054 -1.0091
5.00028 4.00053 -1.00928
5.50127 4.00051 -1.00905
6.00235 4.0005 -1.00824
6.50344 4.00054 -1.00673
7.00447 4.00058 -1.00464
7.50538 4.00066 -1.00203
8.00617 4.00073 -0.998859
8.50686 4.00079 -0.995238
9.00742 4.00082 -0.991254
9.5078 4.00089 -0.98691
10.0079 4.00099 -0.982372
0 4.5 -1
0.499374 4.50021 -1.00031
0.998761 4.50024 -1.00103
1.49827 4.50022 -1.00205
1.99799 4.50025 -1.00329
2.49792 4.50026 -1.00468
2.99801 4.50028 -1.00601
3.49831 4.50038 -1.0072
3.99883 4.50042 -1.00823
4.49949 4.50041 -1.00879
5.00032 4.50034 -1.009
5.50128 4.50027 -1.00876
6.00237 4.50024 -1.0079
6.50345 4.50026 -1.00643
7.00446 4.50033 -1.00433
7.50536 4.50047 -1.00164
8.00613 4.50057 -0.998431
8.50682 4.50063 -0.994811
9.00742 4.5007 -0.990804
9.5078 4.50082 -0.986421
10.0079 4.50099 -0.981832
0 5 -1
0.499376 5.00033 -1.00018
0.998793 5.00034 -1.00088
1.49831 5.00029 -1.00189
1.99803 5.00029 -1.00315
2.49796 5.00025 -1.00454
2.99806 5.00025 -1.00577
3.49833 5.00027 -1.00696
3.99886 5.00029 -1.00799
4.49953 5.00025 -1.00854
5.00036 5.00015 -1.00879
5.50131 5.00004 -1.00857
6.00236 4.99998 -1.00778
6.50342 5 -1.0063
7.00439 5.0001 -1.00409
7.50528 5.00026 -1.00136
8.0061 5.00041 -0.998128
8.50678 5.00047 -0.994483
9.00736 5.00055 -0.990415
9.50775 5.00075 -0.985929
10.0079 5.00099 -0.981293
0 3 1
0.500686 3.00014 0.999544
0.500682 3.5 0.999549
0 3.5 1
1.00122 2.99998 0.998756
1.00128 3.49989 0.998781
1.50166 2.99984 0.997596
1.50174 3.49977 0.997679
2.00195 2.99974 0.996256
2.00203 3.49968 0.996366
2.502 2.99955 0.994739
2.50211 3.49956 0.994942
3.00187 2.99932 0.993212
3.00197 3.49936 0.993518
3.50152 2.99905 0.991999
3.50162 3.49916 0.992298
4.00104 2.99891 0.990877
4.00111 3.49903 0.991215
4.50039 2.99878 0.990114
4.50045 3.49895 0.990563
4.99961 2.99865 0.989823
4.99963 3.49885 0.990309
5.49864 2.99862 0.989963
5.49865 3.49886 0.99049
5.99754 2.99856 0.990808
5.99756 3.49881 0.991384
6.49651 2.99848 0.992228
6.49651 3.49875 0.992828
6.99554 2.99849 0.99421
6.99549 3.49874 0.994826
7.49462 2.99853 0.996845
7.49457 3.49874 0.997438
7.99379 2.99861 0.999966
7.99377 3.49878 1.00056
8.4931 2.99865 1.00355
8.49308 3.49878 1.00414
8.99251 2.99866 1.00756
8.9925 3.49879 1.00816
9.4921 2.99874 1.01195
9.49207 3.49881 1.01248
9.99194 2.99883 1.01648
9.99191 3.49883 1.01702
0.500661 3.99988 0.999568
0 4 1
1.00129 3.99979 0.998862
1.50178 3.99972 0.997822
2.00206 3.99964 0.996515
2.50212 3.99953 0.995133
3.00202 3.99941 0.99375
3.50168 3.99924 0.992532
4.00116 3.99914 0.991557
4.50048 3.99909 0.990922
4.99964 3.99907 0.99065
5.49865 3.99907 0.99093
5.99756 3.99907 0.991834
6.49647 3.99903 0.993254
6.99543 3.99901 0.995291
7.49453 3.99896 0.99794
7.99373 3.99893 1.00108
8.49303 3.9989 1.00467
8.99245 3.99891 1.00868
9.49204 3.99888 1.01302
9.99189 3.99883 1.01756
0.500655 4.49977 0.999636
0 4.5 1
1.00129 4.4997 0.998974
1.5018 4.49968 0.997935
2.00207 4.4996 0.996645
2.50213 4.49954 0.995345
3.00202 4.49945 0.99401
3.5017 4.49931 0.992807
4.00115 4.49925 0.991847
4.50047 4.49923 0.991186
4.99962 4.49926 0.990966
5.49864 4.49931 0.991258
5.99754 4.49933 0.992088
6.49645 4.49932 0.99355
6.99543 4.49926 0.995637
7.49452 4.49915 0.9983
7.99374 4.49909 1.00149
8.49302 4.49906 1.00512
8.9924 4.49903 1.00917
9.492 4.49895 1.01354
9.99186 4.49883 1.0181
0.500672 4.99965 0.999717
0 5 1
1.00129 4.9996 0.999106
1.5018 4.99961 0.998094
2.00208 4.99956 0.996848
2.50213 4.99955 0.995569
3.00201 4.9995 0.994189
3.50171 4.99943 0.993032
4.00114 4.99938 0.992087
4.50045 4.99939 0.991407
4.9996 4.99946 0.991181
5.49864 4.99956 0.991444
5.99755 4.9996 0.992295
6.49647 4.99958 0.993773
6.99548 4.9995 0.995832
7.49457 4.99937 0.998562
7.99374 4.99925 1.00184
8.49303 4.99921 1.0055
8.99242 4.99917 1.00955
9.49199 4.99902 1.01396
9.99183 4.99883 1.01864

CELLS 258 2094
2 6 4
2 6 12
2 6 13
2 6 16
2 6 17
2 7 3
2 7 20
2 7 21
2 7 30
2 7 31
2 8 5
2 8 32
2 8 33
2 8 42
2 8 43
2 9 0
2 9 49
2 9 55
2 9 66
2 9 67
2 10 1
2 10 78
2 10 89
2 10 100
2 10 121
2 10 122
2 10 133
2 11 2
2 11 154
2 11 175
2 11 196
2 11 217
2 11 238
2 11 279
2 11 280
2 11 301
2 11 322
2 11 343
8 12 13 14 12 16 17 18 16
8 14 15 12 14 18 19 16 18
8 24 22 23 24 26 27 28 26
8 23 25 24 23 28 29 26 28
8 25 20 21 25 29 30 31 29
8 21 24 25 21 31 26 29 31
8 36 34 35 36 38 39 40 38
8 35 37 36 35 40 41 38 40
8 37 32 33 37 41 42 43 41
8 33 36 37 33 43 38 41 43
8 44 45 51 44 56 57 58 56
8 51 50 44 51 58 59 56 58
8 45 46 52 45 57 60 61 57
8 52 51 45 52 61 58 57 61
8 46 47 53 46 60 62 63 60
8 53 52 46 53 63 61 60 63
8 47 48 54 47 62 64 65 62
8 54 53 47 54 65 63 62 65
8 48 49 55 48 64 66 67 64
8 55 54 48 55 67 65 64 67
8 68 69 80 68 101 102 103 101
8 80 79 68 80 103 104 101 103
8 69 70 81 69 102 105 106 102
8 81 80 69 81 106 103 102 106
8 70 71 82 70 105 107 108 105
8 82 81 70 82 108 106 105 108
8 71 72 83 71 107 109 110 107
8 83 82 71 83 110 108 107 110
8 72 73 84 72 109 111 112 109
8 84 83 72 84 112 110 109 112
8 73 74 85 73 111 113 114 111
8 85 84 73 85 114 112 111 114
8 74 75 86 74 113 115 116 113
8 86 85 74 86 116 114 113 116
8 75 76 87 75 115 117 118 115
8 87 86 75 87 118 116 115 118
8 76 77 88 76 117 119 120 117
8 88 87 76 88 120 118 117 120
8 77 78 89 77 119 121 122 119
8 89 88 77 89 122 120 119 122
8 79 80 91 79 104 103 123 104
8 91 90 79 91 123 124 104 123
8 80 81 92 80 103 106 125 103
8 92 91 80 92 125 123 103 125
8 81 82 93 81 106 108 126 106
8 93 92 81 93 126 125 106 126
8 82 83 94 82 108 110 127 108
8 94 93 82 94 127 126 108 127
8 83 84 95 83 110 112 128 110
8 95 94 83 95 128 127 110 128
8 84 85 96 84 112 114 129 112
8 96 95 84 96 129 128 112 129
8 85 86 97 85 114 116 130 114
8 97 96 85 97 130 129 114 130
8 86 87 98 86 116 118 131 116
8 98 97 86 98 131 130 116 131
8 87 88 99 87 118 120 132 118
8 99 98 87 99 132 131 118 132
8 88 89 100 88 120 122 133 120
8 100 99 88 100 133 132 120 133
8 145 146 167 145 261 263 264 261
8 146 147 168 146 263 265 266 263
8 168 167 146 168 266 264 263 266
8 147 148 169 147 265 267 268 265
8 169 168 147 169 268 266 265 268
8 148 149 170 148 267 269 270 267
8 170 169 148 170 270 268 267 270
8 149 150 171 149 269 271 272 269
8 171 170 149 171 272 270 269 272
8 150 151 172 150 271 273 274 271
8 172 171 150 172 274 272 271 274
8 151 152 173 151 273 275 276 273
8 173 172 151 173 276 274 273 276
8 152 153 174 152 275 277 278 275
8 174 173 152 174 278 276 275 278
8 153 154 175 153 277 279 280 277
8 175 174 153 175 280 278 277 280
8 167 168 189 167 264 266 294 264
8 168 169 190 168 266 268 295 266
8 190 189 168 190 295 294 266 295
8 169 170 191 169 268 270 296 268
8 191 190 169 191 296 295 268 296
8 170 171 192 170 270 272 297 270
8 192 191 170 192 297 296 270 297
8 171 172 193 171 272 274 298 272
8 193 192 171 193 298 297 272 298
8 172 173 194 172 274 276 299 274
8 194 193 172 194 299 298 274 299
8 173 174 195 173 276 278 300 276
8 195 194 173 195 300 299 276 300
8 174 175 196 174 278 280 301 278
8 196 195 174 196 301 300 278 301
8 189 190 211 189 294 295 316 294
8 190 191 212 190 295 296 317 295
8 212 211 190 212 317 316 295 317
8 191 192 213 191 296 297 318 296
8 213 212 191 213 318 317 296 318
8 192 193 214 192 297 298 319 297
8 214 213 192 214 319 318 297 319
8 193 194 215 193 298 299 320 298
8 215 214 193 215 320 319 298 320
8 194 195 216 194 299 300 321 299
8 216 215 194 216 321 320 299 321
8 195 196 217 195 300 301 322 300
8 217 216 195 217 322 321 300 322
8 211 212 233 211 316 317 338 316
8 212 213 234 212 317 318 339 317
8 234 233 212 234 339 338 317 339
8 213 214 235 213 318 319 340 318
8 235 234 213 235 340 339 318 340
8 214 215 236 214 319 320 341 319
8 236 235 214 236 341 340 319 341
8 215 216 237 215 320 321 342 320
8 237 236 215 237 342 341 320 342
8 216 217 238 216 321 322 343 321
8 238 237 216 238 343 342 321 343
8 139 140 161 139 249 251 252 249
8 161 160 139 161 252 250 249 252
8 140 141 162 140 251 253 254 251
8 162 161 140 162 254 252 251 254
8 141 142 163 141 253 255 256 253
8 163 162 141 163 256 254 253 256
8 142 143 164 142 255 257 258 255
8 164 163 142 164 258 256 255 258
8 143 144 165 143 257 259 260 257
8 165 164 143 165 260 258 257 260
8 144 145 166 144 259 261 262 259
8 166 165 144 166 262 260 259 262
8 167 166 145 167 264 262 261 264
8 161 162 183 161 252 254 288 252
8 183 182 161 183 288 287 252 288
8 162 163 184 162 254 256 289 254
8 184 183 162 184 289 288 254 289
8 163 164 185 163 256 258 290 256
8 185 184 163 185 290 289 256 290
8 164 165 186 164 258 260 291 258
8 186 185 164 186 291 290 258 291
8 165 166 187 165 260 262 292 260
8 187 186 165 187 292 291 260 292
8 166 167 188 166 262 264 293 262
8 188 187 166 188 293 292 262 293
8 189 188 167 189 294 293 264 294
8 182 183 204 182 287 288 309 287
8 183 184 205 183 288 289 310 288
8 205 204 183 205 310 309 288 310
8 184 185 206 184 289 290 311 289
8 206 205 184 206 311 310 289 311
8 185 186 207 185 290 291 312 290
8 207 206 185 207 312 311 290 312
8 186 187 208 186 291 292 313 291
8 208 207 186 208 313 312 291 313
8 187 188 209 187 292 293 314 292
8 209 208 187 209 314 313 292 314
8 188 189 210 188 293 294 315 293
8 210 209 188 210 315 314 293 315
8 211 210 189 211 316 315 294 316
8 204 205 226 204 309 310 331 309
8 205 206 227 205 310 311 332 310
8 227 226 205 227 332 331 310 332
8 206 207 228 206 311 312 333 311
8 228 227 206 228 333 332 311 333
8 207 208 229 207 312 313 334 312
8 229 228 207 229 334 333 312 334
8 208 209 230 208 313 314 335 313
8 230 229 208 230 335 334 313 335
8 209 210 231 209 314 315 336 314
8 231 230 209 231 336 335 314 336
8 210 211 232 210 315 316 337 315
8 232 231 210 232 337 336 315 337
8 233 232 211 233 338 337 316 338
8 134 135 156 134 239 240 241 239
8 156 155 134 156 241 242 239 241
8 135 136 157 135 240 243 244 240
8 157 156 135 157 244 241 240 244
8 136 137 158 136 243 245 246 243
8 158 157 136 158 246 244 243 246
8 137 138 159 137 245 247 248 245
8 159 158 137 159 248 246 245 248
8 138 139 160 138 247 249 250 247
8 160 159 138 160 250 248 247 250
8 155 156 177 155 242 241 281 242
8 177 176 155 177 281 282 242 281
8 156 157 178 156 241 244 283 241
8 178 177 156 178 283 281 241 283
8 157 158 179 157 244 246 284 244
8 179 178 157 179 284 283 244 284
8 158 159 180 158 246 248 285 246
8 180 179 158 180 285 284 246 285
8 159 160 181 159 248 250 286 248
8 181 180 159 181 286 285 248 286
8 160 161 182 160 250 252 287 250
8 182 181 160 182 287 286 250 287
8 176 177 198 176 282 281 302 282
8 198 197 176 198 302 303 282 302
8 177 178 199 177 281 283 304 281
8 199 198 177 199 304 302 281 304
8 178 179 200 178 283 284 305 283
8 200 199 178 200 305 304 283 305
8 179 180 201 179 284 285 306 284
8 201 200 179 201 306 305 284 306
8 180 181 202 180 285 286 307 285
8 202 201 180 202 307 306 285 307
8 181 182 203 181 286 287 308 286
8 203 202 181 203 308 307 286 308
8 204 203 182 204 309 308 287 309
8 197 198 219 197 303 302 323 303
8 219 218 197 219 323 324 303 323
8 198 199 220 198 302 304 325 302
8 220 219 198 220 325 323 302 325
8 199 200 221 199 304 305 326 304
8 221 220 199 221 326 325 304 326
8 200 201 222 200 305 306 327 305
8 222 221 200 222 327 326 305 327
8 201 202 223 201 306 307 328 306
8 223 222 201 223 328 327 306 328
8 202 203 224 202 307 308 329 307
8 224 223 202 224 329 328 307 329
8 203 204 225 203 308 309 330 308
8 225 224 203 225 330 329 308 330
8 226 225 204 226 331 330 309 331

CELL_TYPES 258
3
3
3
3
3
3
3
3
3
3
3
3
3
3
3
3
3
3
3
3
3
3
3
3
3
3
3
3
3
3
3
3
3
3
3
3
3
3
12
12
12
12
12
12
12
12
12
12
12
12
12
12
12
12
12
12
12
12
12
12
12
12
12
12
12
12
12
12
12
12
12
12
12
12
12
12
12
12
12
12
12
12
12
12
12
12
12
12
12
12
12
12
12
12
12
12
12
12
12
12
12
12
12
12
12
12
12
12
12
12
12
12
12
12
12
12
12
12
12
12
12
12
12
12
12
12
12
12
12
12
12
12
12
12
12
12
12
12
12
12
12
12
12
12
12
12
12
12
12
12
12
12
12
12
12
12
12
12
12
12
12
12
12
12
12
12
12
12
12
12
12
12
12
12
12
12
12
12
12
12
12
12
12
12
12
12
12
12
12
12
12
12
12
12
12
12
12
12
12
12
12
12
12
12
12
12
12
12
12
12
12
12
12
12
12
12
12
12
12
12
12
12
12
12
12
12
12
12
12
12
12
12
12
12
12
12
12
12
12
12
12
12
12
12
12
12
12
12
12
12
12
12
12
12
12
12
12
12

POINT_DATA 344
SCALARS NODE_ID int 1
LOOKUP_TABLE default
6
23
66
606
660
1115
1457
1458
1459
1460
1461
1462
1795
1796
1797
1798
1799
1800
1801
1802
1803
1804
1805
1806
1807
1808
1809
1810
1811
1812
1813
1814
1815
1816
1817
1818
1819
1820
1821
1822
1823
1824
1825
1826
1827
1828
1829
1830
1831
1832
1833
1834
1835
1836
1837
1838
1839
1840
1841
1842
1843
1844
1845
1846
1847
1848
1849
1850
1851
1852
1853
1854
1855
1856
1857
1858
1859
1860
1861
1862
1863
1864
1865
1866
1867
1868
1869
1870
1871
1872
1873
1874
1875
1876
1877
1878
1879
1880
1881
1882
1883
1884
1885
1886
1887
1888
1889
1890
1891
1892
1893
1894
1895
1896
1897
1898
1899
1900
1901
1902
1903
1904
1905
1906
1907
1908
1909
1910
1911
1912
1913
1914
1915
1916
1917
1918
1919
1920
1921
1922
1923
1924
1925
1926
1927
1928
1929
1930
1931
1932
1933
1934
1935
1936
1937
1938
1939
1940
1941
1942
1943
1944
1945
1946
1947
1948
1949
1950
1951
1952
1953
1954
1955
1956
1957
1958
1959
1960
1961
1962
1963
1964
1965
1966
1967
1968
1969
1970
1971
1972
1973
1974
1975
1976
1977
1978
1979
1980
1981
1982
1983
1984
1985
1986
1987
1988
1989
1990
1991
1992
1993
1994
1995
1996
1997
1998
1999
2000
2001
2002
2003
2004
2005
2006
2007
2008
2009
2010
2011
2012
2013
2014
2015
2016
2017
2018
2019
2020
2021
2022
2023
2024
2025
2026
2027
2028
2029
2030
2031
2032
2033
2034
2035
2036
2037
2038
2039
2040
2041
2042
2043
2044
2045
2046
2047
2048
2049
2050
2051
2052
2053
2054
2055
2056
2057
2058
2059
2060
2061
2062
2063
2064
2065
2066
2067
2068
2069
2070
2071
2072
2073
2074
2075
2076
2077
2078
2079
2080
2081
2082
2083
2084
2085
2086
2087
2088
2089
2090
2091
2092
2093
2094
2095
2096
2097
2098
2099
2100
2101
2102
2103
2104
2105
2106
2107
2108
2109
2110
2111
2112
2113
2114
2115
2116
2117
2118
2119
2120
2121
2122
2123
2124
2125
2126

VECTORS Velocity float
-1.98431 5.01702 395.112
-2.9873 -2.59709 394.965
-4.24953 -0.9789 456.62
-0.826224 0.742879 -61.4193
-0.598741 0.0585426 365.025
8.84541 -1.75412 -514.44
-0.629345 0.0596831 367.603
-1.01893 0.740398 -67.3543
9.47865 -1.70047 -542.533
-1.37022 4.74026 297.418
-3.60828 -2.68296 444.583
-2.12814 -0.940797 421.652
-54.0228 5.21577 364.695
-54.1452 5.22033 375.009
0 0 0
0 0 0
52.8253 -5.09868 365.354
52.7029 -5.09412 375.668
0 0 0
0 0 0
31.0809 -3.21355 -61.3018
30.8239 -3.21686 -69.2152
0 0 0
0 0 0
-9.90916 -0.256628 29.0424
7.15879 -4.00615 33.7293
7.89012 1.12755 28.5051
0 0 0
0 0 0
-7.85895 4.47832 33.902
-32.7333 4.69931 -61.5368
-32.9902 4.696 -69.4501
82.2886 -24.2327 -512.496
83.3018 -24.1469 -557.445
0 0 0
0 0 0
75.4202 -12.0211 -410.343
31.5538 -12.8413 -135.443
-63.2035 9.40138 -412.334
0 0 0
0 0 0
-26.9911 11.4779 -135.825
-64.5978 20.7245 -516.384
-63.5846 20.8103 -561.333
0 0 0
16.941 -30.6513 37.606
15.0308 -54.8184 93.4616
26.3757 -73.2523 137.568
86.3202 -75.9685 238.381
101.954 -60.1114 396.198
0 0 0
-4.81725 -21.3123 -18.6929
20.058 -50.4584 -4.89328
23.303 -71.0385 4.60699
76.8031 -93.7886 103.611
102.773 -60.4804 265.939
0 0 0
-15.9312 32.709 39.2499
4.56257 21.5304 -17.6084
0 0 0
-13.5122 58.0093 94.1072
-20.8431 51.3926 -4.98163
-27.2718 79.4913 139.022
-23.645 77.0287 4.29746
-86.8547 85.0953 237.674
-78.2118 101.296 101.181
-105.922 70.1454 394.026
-105.104 69.7764 263.766
0 0 0
6.58203 10.1857 9.58782
-18.8453 -7.28988 0.986575
-38.623 8.60947 -38.1581
-17.1682 10.5367 -96.6227
8.51017 19.6704 -125.076
56.6982 23.8076 -101.517
92.4611 29.0583 -26.1857
124.836 47.2564 85.0112
153.963 28.779 245.562
143.723 37.0796 396.325
0 0 0
9.27518 2.91553 4.76223
-14.8934 2.07474 -4.66881
-50.1615 6.10819 -26.5813
-37.386 7.267 -82.5795
1.5998 10.5741 -105.463
55.7759 16.9759 -81.0893
90.8301 19.9664 -5.12613
130.732 27.128 117.092
154.463 14.2858 279.813
143.226 37.0109 436.02
0 0 0
7.94435 3.00962 -3.80393
-12.6275 12.5137 -13.6245
-35.9956 13.8177 -15.155
-30.0549 2.36881 -61.3721
14.8683 -3.40376 -103.324
64.8928 1.89959 -81.9289
98.4808 5.02569 9.83459
141.682 23.4005 158.511
155.094 32.4692 319.491
142.729 36.9422 475.715
0 0 0
-10.0718 -9.56746 13.6496
-13.648 -2.37412 7.38071
0 0 0
13.5837 9.45432 3.58365
8.15645 -0.696207 -3.04263
35.128 -4.44888 -39.4721
45.5765 -3.63812 -30.1858
17.2939 -10.7052 -109.862
37.8696 -7.10489 -82.1901
-1.00331 -22.236 -128.469
3.22727 -13.5802 -106.736
-47.7151 -25.0728 -91.9731
-51.0035 -19.2022 -79.4663
-86.0453 -27.8471 -22.7971
-88.7073 -18.87 -5.51967
-121.793 -45.8707 81.1152
-132.233 -26.8213 117.397
-155.884 -30.0404 238.897
-159.069 -15.6366 279.046
-149.697 -42.2738 393.604
-150.194 -42.3425 433.299
-10.0488 -2.45994 -4.63261
0 0 0
7.49936 -12.7242 -5.93531
33.889 -12.5069 -19.8663
34.5569 -3.68643 -67.853
-7.59264 -1.83717 -94.6343
-57.582 -3.27409 -77.1419
-93.0172 -1.35365 4.04412
-139.803 -21.6128 149.088
-158.949 -34.5825 320.143
-150.691 -42.4112 472.994
0 0 0
-16.5995 -8.40813 -4.82832
-20.8717 -1.99631 -9.4468
-12.7583 6.92867 -3.25508
-29.7602 4.9174 3.18174
-33.8009 -14.1972 -0.856843
-32.4962 -18.5911 -25.8163
-47.6034 -7.22247 -49.5474
-38.9624 -3.71902 -71.3127
-25.8793 -0.11917 -98.058
-4.91615 -13.1201 -110.043
20.7234 -17.9448 -110.315
41.8191 0.333889 -110.435
69.5751 -4.95308 -85.6452
95.5329 -4.36397 -32.2569
121.83 -7.01124 25.1096
140.621 -2.77356 103.822
140.107 -2.02633 198.293
140.904 -20.4368 283.065
134.728 -31.1462 360.62
132.487 -32.0694 457.679
0 0 0
-12.5838 -0.752668 -3.48712
-20.3607 -7.07384 -4.78829
-15.2269 -0.275257 1.16084
-20.9025 3.37645 1.6604
-29.3964 -13.7745 -11.1871
-35.2417 -20.6102 -33.2306
-44.979 -10.9275 -51.2977
-44.8237 -9.99923 -76.6554
-26.3812 -5.17529 -105.25
-1.82982 -11.6971 -119.659
20.0386 -18.7694 -127.329
44.1527 -11.2842 -115.006
73.7584 -10.927 -79.3734
96.9805 -9.42776 -33.5992
113.016 -14.3 28.8883
129.241 -5.44995 104.418
141.021 -0.767365 184.219
145.614 -16.9478 267.479
139.22 -29.5609 350.009
133.43 -32.0525 442.138
0 0 0
-11.8017 1.87483 -3.62966
-15.0198 -8.95093 -14.8795
-22.8533 -9.39959 -1.07373
-20.2051 -9.96413 -1.85915
-22.7423 -15.0606 -17.5477
-30.8988 -22.02 -39.0949
-40.3745 -18.0612 -60.3017
-45.6195 -12.608 -80.8399
-24.2667 -8.76791 -109.24
-5.69128 -9.50102 -132.087
16.993 -18.2645 -141.23
48.0785 -20.8734 -118.691
70.522 -15.6567 -75.0861
94.901 -9.55086 -38.0807
108.861 -13.7142 17.9736
124.451 -15.1092 92.6046
146.084 -12.1079 174.268
152.458 -10.4171 266.146
144.754 -23.6365 337.143
134.373 -32.0356 426.596
0 0 0
-7.14243 10.1205 -4.12641
-15.0281 -6.93541 -16.5188
-25.1884 -11.8929 -1.51295
-24.7005 -19.9197 -17.2737
-29.0158 -22.9887 -33.5041
-28.3261 -22.6306 -44.1325
-34.9348 -20.3749 -68.3624
-40.59 -15.5731 -83.2713
-25.5052 -9.32743 -114.319
-3.11116 3.16389 -136.72
22.6382 -12.5757 -139.341
44.9578 -31.4584 -126.291
71.6131 -23.9035 -83.9336
97.1587 -11.4643 -47.0071
109.236 -14.4646 14.9192
129.414 -25.6679 94.7487
148.152 -23.0246 165.289
150.803 -4.17993 254.419
145.195 -10.8446 327.962
135.316 -32.0186 411.055
0 0 0
-0.258238 12.5467 1.60903
-4.73824 -7.33077 -20.4339
-9.89514 -13.6378 -3.20935
-20.136 -22.0785 -29.5088
-34.4439 -27.0794 -43.6549
-27.0473 -21.7813 -56.3792
-33.0033 -20.1413 -86.28
-42.4211 -22.52 -92.0153
-26.4814 -4.95388 -119.5
-7.90391 1.75282 -138.396
29.6007 -10.9887 -143.501
47.867 -33.1631 -139.197
67.2823 -37.6027 -90.2408
95.5042 -15.5682 -45.6548
109.943 -16.6486 12.3863
134.284 -27.9528 80.9796
140.052 -27.6268 147.258
140.619 -9.23346 248.066
146.091 -5.82403 324.947
136.259 -32.0017 395.514
0 0 0
14.1925 8.12913 5.14189
10.0585 0.125177 0.327438
0 0 0
16.9049 1.87611 3.18684
15.9486 5.95402 -4.01253
7.55943 -6.17028 0.0348249
9.46402 -0.207923 0.0723438
23.6406 -3.68401 1.26591
14.2869 -3.1363 3.2241
26.6 14.0487 -14.3063
23.5914 14.7517 -12.2023
25.6531 17.0671 -24.3664
29.6304 19.8789 -32.198
42.3447 4.16006 -46.3425
40.1109 7.39232 -55.8675
36.2868 0.00264659 -84.2852
42.2124 5.92711 -83.2745
27.4121 -1.22564 -101.764
27.8953 3.72387 -104.193
9.59166 13.717 -118.084
6.17852 11.6471 -127.465
-14.402 18.1228 -117.021
-13.1502 18.2688 -124.271
-34.8155 0.0981028 -96.7037
-36.8191 10.0422 -102.794
-63.7518 3.26606 -79.6723
-66.5007 8.87246 -81.7509
-90.7342 1.2555 -34.438
-90.9243 7.03381 -35.0245
-119.078 1.86459 36.463
-109.8 9.86622 26.9373
-140.577 -2.40607 99.9087
-129.233 1.27768 96.3086
-141.438 -1.58232 180.555
-143.542 -2.18206 184.678
-144.385 20.1186 282.059
-149.671 17.1429 274.946
-140.677 32.0345 365.689
-144.852 30.0541 345.027
-140.986 30.1116 455.562
-140.044 30.1286 440.02
9.00791 -3.06609 0.494996
0 0 0
9.14294 6.83758 -2.13343
15.1684 7.85464 -0.0307444
13.1217 9.59785 -8.5604
16.8909 15.2084 -21.3044
26.8218 21.278 -41.0322
37.5844 15.7186 -60.8726
44.7973 9.07386 -81.7583
25.8554 6.16789 -114.155
10.5147 8.20138 -131.204
-10.2981 16.0409 -130.482
-41.5568 18.5905 -114.73
-64.3251 13.9056 -81.5854
-89.3793 8.5001 -44.1338
-105.779 10.5856 17.4917
-124.079 11.871 99.1228
-148.416 9.85043 178.968
-156.063 10.3761 258.156
-148.741 23.8066 331.017
-139.101 30.1455 424.479
3.637 -11.4942 2.7955
0 0 0
8.18303 4.08311 -10.7645
16.9177 8.99491 -4.83166
17.3843 18.2467 -17.5479
23.4899 22.0266 -31.3311
25.2281 20.6522 -49.2291
34.4156 18.2306 -64.9995
41.5881 12.3847 -85.6556
28.8807 6.91305 -124.04
8.29511 -5.75955 -135.975
-16.3422 9.26453 -139.817
-39.4941 28.1927 -124.409
-66.739 22.3197 -78.8141
-93.2172 11.7927 -47.0307
-107.108 12.7331 12.3921
-129.469 22.5482 90.7749
-149.734 20.4332 165.506
-153.14 3.9414 255.382
-147.394 11.0334 323.392
-138.158 30.1624 408.938
-2.35126 -13.4158 0.178051
0 0 0
-0.943396 4.08283 -13.48
2.30909 10.206 -9.72323
12.6739 19.3283 -22.8717
28.7976 24.54 -44.373
24.7539 18.6678 -55.6571
31.6224 15.7548 -67.3281
43.6402 19.6565 -95.6535
30.8024 3.26462 -132.109
13.8402 -4.06047 -138.649
-24.2829 7.25437 -141.684
-43.3761 30.4518 -133.772
-64.2286 36.2953 -94.9868
-92.4722 16.6519 -60.7244
-107.678 15.5237 7.83556
-134.297 24.9875 88.1899
-142.745 24.5037 152.638
-143.492 9.16807 240.129
-147.29 6.48177 309.579
-137.215 30.1794 393.396

CELL_DATA 258
SCALARS ELEMENT_ID int 1
LOOKUP_TABLE default
0
0
0
0
0
0
0
0
0
0
0
0
0
0
0
0
0
0
0
0
0
0
0
0
0
0
0
0
0
0
0
0
0
0
0
0
0
0
1
2
3
4
5
6
7
8
9
10
11
12
13
14
15
16
17
18
19
20
21
22
23
24
25
26
27
28
29
30
31
32
33
34
35
36
37
38
39
40
41
42
43
44
45
46
47
48
49
50
51
52
53
54
55
56
57
58
59
60
83
85
86
87
88
89
90
91
92
93
94
95
96
97
98
99
100
125
127
128
129
130
131
132
133
134
135
136
137
138
139
140
167
169
170
171
172
173
174
175
176
177
178
179
180
209
211
212
213
214
215
216
217
218
219
220
71
72
73
74
75
76
77
78
79
80
81
82
84
113
114
115
116
117
118
119
120
121
122
123
124
126
153
155
156
157
158
159
160
161
162
163
164
165
166
168
195
197
198
199
200
201
202
203
204
205
206
207
208
210
61
62
63
64
65
66
67
68
69
70
101
102
103
104
105
106
107
108
109
110
111
112
141
142
143
144
145
146
147
148
149
150
151
152
154
181
182
183
184
185
186
187
188
189
190
191
192
193
194
196

SCALARS PART_ID int 1
LOOKUP_TABLE default
713
713
713
713
713
714
714
714
714
714
715
715
715
715
715
716
716
716
716
716
717
717
717
717
717
717
717
718
718
718
718
718
718
718
718
718
718
718
15
15
16
16
16
16
17
17
17
17
18
18
18
18
18
18
18
18
18
18
19
19
19
19
19
19
19
19
19
19
19
19
19
19
19
19
19
19
19
19
19
19
19
19
19
19
19
19
19
19
19
19
19
19
19
19
19
19
19
19
20
20
20
20
20
20
20
20
20
20
20
20
20
20
20
20
20
20
20
20
20
20
20
20
20
20
20
20
20
20
20
20
20
20
20
20
20
20
20
20
20
20
20
20
20
20
20
20
20
20
20
20
20
20
20
20
20
20
20
20
20
20
20
20
20
20
20
20
20
20
20
20
20
20
20
20
20
20
20
20
20
20
20
20
20
20
20
20
20
20
20
20
20
20
20
20
20
20
20
20
20
20
20
20
20
20
20
20
20
20
20
20
20
20
20
20
20
20
20
20
20
20
20
20
20
20
20
20
20
20
20
20
20
20
20
20
20
20
20
20
20
20
20
20
20
20
20
20
20
20
20
20
20
20
20
20
20
20
20
20

SCALARS EROSION_STATUS int 1
LOOKUP_TABLE default
1
1
1
1
1
1
1
1
1
1
1
1
1
1
1
1
1
1
1
1
1
1
1
1
1
1
1
1
1
1
1
1
1
1
1
1
1
1
1
1
1
1
1
1
1
1
1
1
1
1
1
1
1
1
1
1
1
1
1
1
1
1
1
1
1
1
1
1
1
1
1
1
1
1
1
1
1
1
1
1
1
1
1
1
1
1
1
1
1
1
1
1
1
1
1
1
1
1
1
1
1
1
1
1
1
1
1
1
1
1
1
1
1
1
1
1
1
1
1
1
1
1
1
1
1
1
1
1
1
1
1
1
1
1
1
1
1
1
1
1
1
1
1
1
1
1
1
1
1
1
1
1
1
1
1
1
1
1
1
1
1
1
1
1
1
1
1
1
1
1
1
1
1
1
1
1
1
1
1
1
1
1
1
1
1
1
1
1
1
1
1
1
1
1
1
1
1
1
1
1
1
1
1
1
1
1
1
1
1
1
1
1
1
1
1
1
1
1
1
1
1
1
1
1
1
1
1
1
1
1
1
1
1
1
1
1
1
1
1
1
1
1
1
1
1
1
1
1
1
1
1
1
1
1
1
1
1
1

SCALARS 1DELEM_Plastic_Strain float 1
LOOKUP_TABLE default
0
0
0
0
0
0
0
0
0
0
0
0
0
0
0
0
0
0
0
0
0
0
0
0
0
0
0
0
0
0
0
0
0
0
0
0
0
0
0
0
0
0
0
0
0
0
0
0
0
0
0
0
0
0
0
0
0
0
0
0
0
0
0
0
0
0
0
0
0
0
0
0
0
0
0
0
0
0
0
0
0
0
0
0
0
0
0
0
0
0
0
0
0
0
0
0
0
0
0
0
0
0
0
0
0
0
0
0
0
0
0
0
0
0
0
0
0
0
0
0
0
0
0
0
0
0
0
0
0
0
0
0
0
0
0
0
0
0
0
0
0
0
0
0
0
0
0
0
0
0
0
0
0
0
0
0
0
0
0
0
0
0
0
0
0
0
0
0
0
0
0
0
0
0
0
0
0
0
0
0
0
0
0
0
0
0
0
0
0
0
0
0
0
0
0
0
0
0
0
0
0
0
0
0
0
0
0
0
0
0
0
0
0
0
0
0
0
0
0
0
0
0
0
0
0
0
0
0
0
0
0
0
0
0
0
0
0
0
0
0
0
0
0
0
0
0
0
0
0
0
0
0
0
0
0
0
0
0

SCALARS 1DELEM_Specific_Energy float 1
LOOKUP_TABLE default
0
0
0
0
0
0
0
0
0
0
0
0
0
0
0
0
0
0
0
0
0
0
0
0
0
0
0
0
0
0
0
0
0
0
0
0
0
0
0
0
0
0
0
0
0
0
0
0
0
0
0
0
0
0
0
0
0
0
0
0
0
0
0
0
0
0
0
0
0
0
0
0
0
0
0
0
0
0
0
0
0
0
0
0
0
0
0
0
0
0
0
0
0
0
0
0
0
0
0
0
0
0
0
0
0
0
0
0
0
0
0
0
0
0
0
0
0
0
0
0
0
0
0
0
0
0
0
0
0
0
0
0
0
0
0
0
0
0
0
0
0
0
0
0
0
0
0
0
0
0
0
0
0
0
0
0
0
0
0
0
0
0
0
0
0
0
0
0
0
0
0
0
0
0
0
0
0
0
0
0
0
0
0
0
0
0
0
0
0
0
0
0
0
0
0
0
0
0
0
0
0
0
0
0
0
0
0
0
0
0
0
0
0
0
0
0
0
0
0
0
0
0
0
0
0
0
0
0
0
0
0
0
0
0
0
0
0
0
0
0
0
0
0
0
0
0
0
0
0
0
0
0
0
0
0
0
0
0

SCALARS 1DELEM_Von_Mises float 1
LOOKUP_TABLE default
0
0
0
0
0
0
0
0
0
0
0
0
0
0
0
0
0
0
0
0
0
0
0
0
0
0
0
0
0
0
0
0
0
0
0
0
0
0
0
0
0
0
0
0
0
0
0
0
0
0
0
0
0
0
0
0
0
0
0
0
0
0
0
0
0
0
0
0
0
0
0
0
0
0
0
0
0
0
0
0
0
0
0
0
0
0
0
0
0
0
0
0
0
0
0
0
0
0
0
0
0
0
0
0
0
0
0
0
0
0
0
0
0
0
0
0
0
0