# vtk DataFile Version 3.0
vtk output
ASCII
DATASET UNSTRUCTURED_GRID
FIELD FieldData 2
TIME 1 1 double
2.50147
CYCLE 1 1 int
0
POINTS 850 float
12.4071 80.0121 0
22.4057 80.0357 0
32.3955 80.0792 0
42.3897 80.1043 0
52.3799 80.119 0
62.3718 80.1609 0
72.3675 80.1883 0
82.3655 80.1741 0
92.3627 80.1171 0
102.364 80.0205 0
112.362 79.8935 0
122.362 79.7388 0
132.359 79.517 0
142.353 79.2252 0
152.348 78.9287 0
162.344 78.6468 0
172.336 78.3449 0
182.16 72.997 0
191.97 67.6452 0
201.787 62.2892 0
211.561 56.8704 0
221.307 51.3892 0
230.995 45.807 0
240.654 40.1776 0
250.288 34.4964 0
259.926 28.8392 0
269.585 23.1979 0
279.096 17.3435 0
288.042 10.6275 0
296.335 3.1406 0
304.145 -4.87631 0
311.899 -12.9239 0
320.899 -19.5513 0
330.805 -18.403 0
340.53 -16.0032 0
350.243 -13.6461 0
360.106 -11.9576 0
370.073 -11.1711 0
380.073 -11.0814 0
390.068 -11.1671 0
400.067 -11.3548 0
410.06 -11.5684 0
420.055 -11.809 0
430.044 -12.0691 0
440.035 -12.3267 0
450.025 -12.5799 0
460.015 -12.8326 0
470.009 -13.0396 0
480 -13.1265 0
0 0 0
12.4071 80.0121 10
22.4049 80.0353 10.0002
32.3953 80.0779 10.0013
42.3881 80.0993 10.0022
52.3786 80.1212 10.0028
62.3716 80.1577 10.0017
72.3679 80.1898 10.0019
82.3642 80.1781 10.0012
92.3639 80.1285 10.0004
102.363 80.0458 9.99967
112.364 79.9334 10.0003
122.362 79.7839 10.0008
132.361 79.56 10.0026
142.356 79.2702 10.0043
152.35 78.9549 10.0024
162.344 78.6609 9.99885
172.343 78.3545 9.99541
182.158 73.0042 9.99784
191.979 67.6527 10.0016
201.792 62.3103 10.0039
211.586 56.9116 10.0035
221.317 51.4078 10.0007
231.006 45.8269 10.0017
240.632 40.1334 9.99835
250.254 34.4463 10.0006
259.88 28.7497 9.99955
269.527 23.1148 10.0053
279.055 17.2588 10.0054
288.09 10.6979 9.991
296.368 3.16491 9.98419
304.225 -4.7782 9.99907
311.935 -12.8755 10.0174
320.882 -19.5657 10.0235
330.832 -18.389 10.0111
340.498 -15.898 9.99575
350.243 -13.6165 9.98748
360.097 -11.9152 9.9923
370.077 -11.3004 10.0056
380.071 -11.2551 10.0029
390.07 -11.3686 10.0007
400.062 -11.5399 9.99943
410.059 -11.7406 9.99895
420.05 -11.9412 9.99934
430.042 -12.1642 10.0002
440.033 -12.3989 10.0014
450.024 -12.6316 10.001
460.014 -12.8609 10.001
470.009 -13.047 10.0009
480 -13.1286 10
0 0 0
12.4071 80.0121 20
22.4035 80.0337 20.0006
32.3928 80.0687 20.0025
42.3839 80.0907 20.005
52.376 80.1072 20.0042
62.3711 80.1424 20.0038
72.3659 80.1696 20.0027
82.3643 80.1705 20.0017
92.3617 80.1411 19.9997
102.363 80.0974 19.9991
112.363 80.0261 19.9987
122.365 79.8996 20.0009
132.364 79.6941 20.003
142.364 79.3995 20.0054
152.36 79.0582 20.0077
162.35 78.7079 19.997
172.343 78.366 19.988
182.17 73.0192 19.9957
191.993 67.701 20.0054
201.831 62.3796 20.0073
211.619 56.9746 20.0021
221.343 51.4512 20.0036
230.981 45.7778 19.9974
240.576 40.0369 20.0006
250.149 34.2578 19.9943
259.754 28.5477 20.0006
269.363 22.8242 20.0009
278.908 17.0295 20.0079
288.119 10.6855 19.9898
296.591 3.43069 19.9657
304.345 -4.63323 19.9917
312.12 -12.6492 20.0387
320.967 -19.3043 20.0945
330.798 -18.2344 20.0265
340.502 -15.7783 19.9925
350.189 -13.3254 19.9654
360.092 -11.9958 19.9971
370.078 -11.6937 20.0018
380.075 -11.7289 19.9956
390.065 -11.8396 19.9924
400.061 -11.9828 19.991
410.052 -12.1251 19.9924
420.046 -12.268 19.9948
430.036 -12.4111 19.9978
440.029 -12.5912 20.0004
450.021 -12.7637 20.0016
460.013 -12.9406 20.0021
470.007 -13.07 20.0017
480 -13.1241 20
0 0 0
12.4071 80.0121 30
22.3994 80.0289 30.0018
32.3858 80.0559 30.0054
42.3792 80.0673 30.0065
52.3733 80.081 30.0063
62.3679 80.0994 30.005
72.3651 80.1204 30.0031
82.3612 80.1249 30.0015
92.3605 80.1243 30.0002
102.358 80.1231 29.9981
112.362 80.1033 29.9984
122.364 80.0421 29.9978
132.372 79.8968 30.0019
142.374 79.6338 30.0037
152.377 79.2618 30.0082
162.383 78.8593 30.0013
172.379 78.4605 29.9582
182.185 73.101 29.9951
192.047 67.8031 30.0108
201.888 62.4903 30.0041
211.663 57.0505 30.0067
221.323 51.4042 29.996
230.91 45.6473 30.0023
240.453 39.8213 29.9905
250.011 34.0269 29.9962
259.565 28.2176 29.9886
269.137 22.4592 29.9983
278.671 16.6111 29.9946
288.086 10.6042 29.9927
297.083 3.93727 29.946
305.102 -3.74545 29.9046
312.151 -12.41 30.0996
320.905 -19.5514 30.0667
330.906 -17.9981 30.0827
340.319 -14.7268 29.9165
350.113 -12.9413 29.9639
360.095 -12.4013 29.9932
370.085 -12.3487 29.9823
380.073 -12.3877 29.9782
390.065 -12.4571 29.9748
400.054 -12.5308 29.9781
410.047 -12.6117 29.9824
420.038 -12.6849 29.9874
430.031 -12.7646 29.9933
440.024 -12.8575 29.9981
450.018 -12.9526 30.0017
460.012 -13.0425 30.0035
470.005 -13.1023 30.0026
480 -13.1225 30
0 0 0
12.4071 80.0121 40
22.3881 80.0283 40.0055
32.3804 80.0354 40.0078
42.3754 80.0388 40.0078
52.37 80.0432 40.0078
62.3673 80.0454 40.0057
72.363 80.0473 40.0039
82.361 80.0482 40.0021
92.358 80.0479 39.9997
102.358 80.0474 39.9982
112.355 80.0461 39.9959
122.359 80.0447 39.9983
132.365 80.0368 39.9963
142.396 79.9772 39.9974
152.446 79.828 39.9798
162.523 79.5427 39.9888
172.61 79.1806 39.8502
182.481 73.7786 39.9893
192.269 68.281 39.9808
201.997 62.6794 40.01
211.621 56.9416 39.9947
221.191 51.1621 39.9999
230.748 45.3635 39.9866
240.305 39.5667 39.9976
249.839 33.7283 39.9813
259.37 27.8979 39.9933
268.882 22.019 39.9798
278.391 16.1633 39.9874
287.889 10.2482 39.9792
297.388 4.32184 39.9506
306.823 -2.0742 39.6551
314.981 -9.53915 39.4256
321.939 -16.0884 40.0647
330.105 -14.1953 39.4991
340.031 -13.2007 39.83
350.124 -13.0505 39.9841
360.108 -13.1122 39.9627
370.088 -13.1221 39.9617
380.075 -13.1312 39.9539
390.059 -13.1301 39.9573
400.049 -13.1328 39.9642
410.038 -13.1301 39.9725
420.031 -13.1305 39.9818
430.023 -13.1289 39.9889
440.019 -13.1288 39.9976
450.014 -13.1289 40.0022
460.01 -13.1304 40.0044
470.007 -13.1306 40.0044
480 -13.1309 40
0 0 0
12.4071 70.0121 40
22.3944 70.0232 39.9992
32.382 70.0334 39.9892
42.376 70.0376 39.9758
52.3715 70.0415 39.9616
62.3661 70.0447 39.9426
72.3632 70.0464 39.9195
82.3582 70.0477 39.8898
92.3561 70.0486 39.8507
102.351 70.0481 39.7924
112.349 70.0497 39.7364
122.344 70.0474 39.7318
132.336 70.036 39.8866
142.313 69.9933 40.3562
152.293 69.886 41.0366
162.297 69.6721 41.4726
172.299 69.321 41.3521
182.074 63.9068 41.4967
191.737 58.3417 40.9559
201.296 52.6859 40.0474
210.848 46.9704 39.5476
220.395 41.1896 39.4968
229.94 35.4038 39.619
239.463 29.5866 39.655
248.986 23.7713 39.6857
258.49 17.9173 39.6118
267.992 12.0755 39.574
277.482 6.18912 39.4314
286.951 0.319909 39.5623
296.314 -5.6647 40.2997
305.153 -11.4927 43.4148
313.375 -17.5933 45.7607
322.29 -23.1572 47.259
331.255 -23.2727 44.2598
340.467 -23.1691 41.1607
350.138 -23.0734 39.3505
360.087 -23.0811 39.1649
370.081 -23.1078 39.2496
380.067 -23.1147 39.3372
390.058 -23.1234 39.4249
400.047 -23.1242 39.5077
410.04 -23.1279 39.5882
420.031 -23.1276 39.6608
430.025 -23.1294 39.7407
440.019 -23.1294 39.8192
450.014 -23.1311 39.8906
460.01 -23.1311 39.9468
470.005 -23.1323 39.984
480 -23.1326 40
0 0 0
12.4071 60.0121 40
22.3972 60.02 39.9906
32.3853 60.0295 39.9724
42.378 60.0359 39.9462
52.3719 60.0394 39.916
62.3669 60.0431 39.8803
72.361 60.0454 39.8298
82.3578 60.0469 39.7616
92.3513 60.0483 39.662
102.347 60.0502 39.5305
112.339 60.0511 39.3829
122.329 60.0531 39.3085
132.304 60.0353 39.5764
142.221 60.0103 40.5494
152.093 59.951 42.1307
162.008 59.8393 43.3146
171.973 59.5142 43.3644
181.66 54.029 43.129
191.151 48.3852 41.7864
200.536 42.7033 39.7179
210.057 36.9722 38.8947
219.587 31.196 38.9645
229.096 25.3893 39.0961
238.607 19.5839 39.2511
248.099 13.7483 39.2425
257.59 7.91648 39.2392
267.071 2.05621 39.0501
276.54 -3.79388 38.961
285.97 -9.69727 39.0421
295.135 -15.599 41.1079
303.679 -21.4706 44.9789
312.336 -27.3606 48.9325
322.136 -32.8827 49.1435
331.751 -33.0416 46.2611
340.566 -33.091 41.5613
350.134 -33.0895 38.895
360.087 -33.0773 38.4787
370.069 -33.0941 38.6813
380.062 -33.1119 38.8851
390.052 -33.1173 39.0655
400.046 -33.1242 39.2228
410.038 -33.1262 39.3562
420.032 -33.1293 39.4832
430.025 -33.1299 39.6075
440.019 -33.1318 39.7278
450.014 -33.1319 39.8346
460.009 -33.1333 39.9207
470.005 -33.1334 39.9787
480 -33.134 40
0 0 0
12.4071 50.0121 40
22.3986 50.0179 39.9882
32.3895 50.0258 39.9594
42.3805 50.0329 39.924
52.3744 50.0369 39.8812
62.3675 50.0407 39.8257
72.3624 50.0436 39.7506
82.355 50.0457 39.6434
92.3498 50.047 39.4966
102.34 50.0499 39.2954
112.332 50.052 39.0675
122.318 50.0498 38.9072
132.301 50.0487 39.1277
142.211 50.0172 40.3428
151.963 49.977 42.4894
161.706 49.9126 44.6946
171.637 49.6746 45.339
181.283 44.1355 44.832
190.599 38.4226 42.5489
199.754 32.6712 39.8231
209.214 26.9198 38.4702
218.721 21.1151 38.4203
228.221 15.3099 38.6672
237.696 9.48391 38.7897
247.173 3.66053 38.9036
256.644 -2.1806 38.7978
266.108 -8.02128 38.7051
275.564 -13.8858 38.4257
284.977 -19.7742 38.7927
294.197 -25.6591 40.7954
302.963 -31.4903 44.5066
312.111 -37.2842 47.2392
321.665 -42.8087 47.9188
331.292 -42.9913 45.4961
340.542 -43.0599 41.7263
350.113 -43.0915 38.8954
360.079 -43.091 38.1322
370.066 -43.1002 38.3682
380.055 -43.1093 38.6378
390.049 -43.1185 38.8765
400.041 -43.123 39.0714
410.036 -43.1279 39.2417
420.029 -43.1296 39.3984
430.024 -43.1322 39.5506
440.018 -43.1324 39.6946
450.013 -43.1342 39.8227
460.008 -43.1341 39.9191
470.004 -43.1352 39.9791
480 -43.1347 40
0 0 0
12.4071 40.0121 40
22.4004 40.0163 39.9872
32.3918 40.0231 39.9578
42.3852 40.0292 39.9189
52.3769 40.0342 39.8666
62.3708 40.0375 39.7986
72.3626 40.041 39.7057
82.3558 40.0431 39.5791
92.3473 40.0456 39.4023
102.341 40.047 39.1681
112.327 40.0475 38.8795
122.318 40.0491 38.6189
132.308 40.0486 38.7589
142.215 40.0341 40.0725
151.88 39.9899 42.6303
161.39 39.9629 45.666
171.267 39.7535 46.9679
180.856 34.1758 45.9658
189.95 28.4522 43.0719
199.02 22.6824 40.0549
208.379 16.9063 38.2368
217.852 11.0565 38.2635
227.291 5.19168 38.4415
236.747 -0.654122 38.6764
246.209 -6.48718 38.6891
255.677 -12.3142 38.6898
265.141 -18.1551 38.4765
274.584 -24.0239 38.3818
284.059 -29.8794 38.5867
293.395 -35.6785 40.5073
302.462 -41.4733 43.4583
[...]
POINT_DATA 850
SCALARS NODE_ID int 1
LOOKUP_TABLE default
1
2
3
4
5
6
7
8
9
10
11
12
13
14
15
16
17
18
19
20
21
22
23
24
25
26
27
28
29
30
31
32
33
34
35
36
37
38
39
40
41
42
43
44
45
46
47
48
49
50
51
52
53
54
55
56
57
58
59
60
61
62
63
64
65
66
67
68
69
70
71
72
73
74
75
76
77
78
79
80
81
82
83
84
85
86
87
88
89
90
91
92
93
94
95
96
97
98
99
100
101
102
103
104
105
106
107
108
109
110
111
112
113
114
115
116
117
118
119
120
121
122
123
124
125
126
127
128
129
130
131
132
133
134
135
136
137
138
139
140
141
142
143
144
145
146
147
148
149
150
151
152
153
154
155
156
157
158
159
160
161
162
163
164
165
166
167
168
169
170
171
172
173
174
175
176
177
178
179
180
181
182
183
184
185
186
187
188
189
190
191
192
193
194
195
196
197
198
199
200
201
202
203
204
205
206
207
208
209
210
211
212
213
214
215
216
217
218
219
220
221
222
223
224
225
226
227
228
229
230
231
232
233
234
235
236
237
238
239
240
241
242
243
244
245
246
247
248
249
250
251
252
253
254
255
256
257
258
259
260
261
262
263
264
265
266
267
268
269
270
271
272
273
274
275
276
277
278
279
280
281
282
283
284
285
286
287
288
289
290
291
292
293
294
295
296
297
298
299
300
301
302
303
304
305
306
307
308
309
310
311
312
313
314
315
316
317
318
319
320
321
322
323
324
325
326
327
328
329
330
331
332
333
334
335
336
337
338
339
340
341
342
343
344
345
346
347
348
349
350
351
352
353
354
355
356
357
358
359
360
361
362
363
364
365
366
367
368
369
370
371
372
373
374
375
376
377
378
379
380
381
382
383
384
385
386
387
388
389
390
391
392
393
394
395
396
397
398
399
400
401
402
403
404
405
406
407
408
409
410
411
412
413
414
415
416
417
418
419
420
421
422
423
424
425
426
427
428
429
430
431
432
433
434
435
436
437
438
439
440
441
442
443
444
445
446
447
448
449
450
451
452
453
454
455
456
457
458
459
460
461
462
463
464
465
466
467
468
469
470
471
472
473
474
475
476
477
478
479
480
481
482
483
484
485
486
487
488
489
490
491
492
493
494
495
496
497
498
499
500
501
502
503
504
505
506
507
508
509
510
511
512
513
514
515
516
517
518
519
520
521
522
523
524
525
526
527
528
529
530
531
532
533
534
535
536
537
538
539
540
541
542
543
544
545
546
547
548
549
550
551
552
553
554
555
556
557
558
559
560
561
562
563
564
565
566
567
568
569
570
571
572
573
574
575
576
577
578
579
580
581
582
583
584
585
586
587
588
589
590
591
592
593
594
595
596
597
598
599
600
601
602
603
604
605
606
607
608
609
610
611
612
613
614
615
616
617
618
619
620
621
622
623
624
625
626
627
628
629
630
631
632
633
634
635
636
637
638
639
640
641
642
643
644
645
646
647
648
649
650
651
652
653
654
655
656
657
658
659
660
661
662
663
664
665
666
667
668
669
670
671
672
673
674
675
676
677
678
679
680
681
682
683
684
685
686
687
688
689
690
691
692
693
694
695
696
697
698
699
700
701
702
703
704
705
706
707
708
709
710
711
712
713
714
715
716
717
718
719
720
721
722
723
724
725
726
727
728
729
730
731
732
733
734
735
736
737
738
739
740
741
742
743
744
745
746
747
748
749
750
751
752
753
754
755
756
757
758
759
760
761
762
763
764
765
766
767
768
769
770
771
772
773
774
775
776
777
778
779
780
781
782
783
784
785
786
787
788
789
790
791
792
793
794
795
796
797
798
799
800
801
802
803
804
805
806
807
808
809
810
811
812
813
814
815
816
817
818
819
820
821
822
823
824
825
826
827
828
829
830
831
832
833
834
835
836
837
838
839
840
841
842
843
844
845
846
847
848
849
850

VECTORS Velocity float
4.93279 0.00523629 0
4.97847 -0.0153936 0
4.94952 -0.113184 0
4.92847 0.52382 0
4.95941 1.07254 0
4.8939 1.32243 0
4.9491 0.989134 0
4.94592 0.162079 0
4.93585 -0.266936 0
5.04081 0.294189 0
5.04765 0.805872 0
4.94505 1.31357 0
5.03085 1.39853 0
4.95168 0.970067 0
4.94137 0.329513 0
4.84695 -0.0570716 0
4.88847 -0.764612 0
4.48687 -1.71881 0
4.265 -1.96111 0
4.16504 -2.3382 0
4.10434 -2.34665 0
4.02312 -2.55214 0
3.71162 -2.94579 0
3.37604 -3.65051 0
2.98453 -4.10053 0
2.99169 -4.28873 0
3.10794 -4.11919 0
3.23701 -3.57603 0
3.23284 -3.62286 0
2.56711 -4.33865 0
1.60854 -5.36752 0
0.81435 -6.16962 0
0.426365 -6.52244 0
0.381392 -6.29285 0
0.321021 -5.78597 0
0.105698 -5.1448 0
0.151576 -4.91545 0
0.0934268 -5.36812 0
0.0830759 -5.66813 0
0.031827 -6.29661 0
0.0762495 -6.76164 0
0.0381996 -7.31334 0
0.0402168 -7.77218 0
0.0305354 -8.20576 0
0.00700561 -8.40343 0
-0.0152281 -7.93612 0
0.0783897 -7.18189 0
0.0332825 -6.37561 0
0 -6.18386 0
0 0 0
4.93279 0.00523629 0
4.87134 -0.0768108 -0.00670481
4.90881 -0.0311471 0.0793335
4.94058 0.58185 0.0813404
4.95695 1.08373 0.0404449
4.93801 1.37011 0.042239
5.03271 1.0734 -0.00280897
4.90234 0.276201 0.0196317
5.0927 -0.0826317 0.0063259
4.93792 0.144122 0.0364135
5.05089 0.464387 0.0518562
4.90043 1.0756 0.0134429
4.97754 1.19393 0.059698
4.96237 0.8643 -0.0302694
5.00017 0.285497 0.0248436
4.96133 -0.199479 -0.0356445
4.90462 -0.990222 0.00676049
4.60654 -1.55048 -0.0252922
4.31592 -2.0402 -0.0121434
4.19551 -2.06904 -0.00428151
4.19795 -2.33569 0.0204185
4.06746 -2.42628 0.0117834
3.83321 -2.84894 -0.0269647
3.42723 -3.49469 0.0189964
3.15289 -3.9784 0.068332
3.00174 -4.08612 0.0322957
3.1596 -3.93858 0.0189236
3.30205 -3.61096 -0.0184718
3.36682 -3.56848 0.0213821
2.6305 -4.38714 0.021001
1.75502 -5.25543 -0.0111502
0.800562 -6.18521 -0.000262876
0.487547 -6.70857 -0.0230298
0.473392 -6.48978 0.016523
0.285884 -5.80946 0.0230518
0.18367 -5.21964 0.00909507
0.0823121 -4.90807 -0.00759253
0.0675568 -5.30865 -0.00141147
0.0611106 -5.7676 -0.0423763
0.0709709 -6.06518 -0.0545325
-0.00808851 -6.54872 0.0419758
0.0323706 -6.93398 0.0367202
0.0424068 -7.59708 -0.023968
0.0440587 -7.91252 -0.0239213
-0.0635029 -8.14826 0.0451657
0.0284336 -7.80928 -0.0228628
-0.00408732 -7.09515 0.0297565
0.015838 -6.51484 0.000356609
0 -6.15902 0
0 0 0
4.93279 0.00523629 0
4.90504 -0.119983 -0.0256234
4.9796 -0.0760751 0.0462441
4.92177 0.610233 -0.0213363
4.98099 0.978134 -0.0318476
4.94128 1.10412 -0.0555923
4.9291 1.05996 -0.0251891
4.96931 0.648302 0.0204234
4.97682 0.458662 0.00226474
5.01383 0.377853 -0.0486552
5.00574 0.424539 -0.0449224
4.98359 0.939267 0.0120105
5.00062 0.955785 0.00961438
4.93449 0.594787 -0.0349726
4.97271 0.294935 -0.0311272
4.86476 -0.294133 -0.0612916
4.92613 -0.864284 -0.0335639
4.69023 -1.29195 0.0134132
4.50813 -1.52995 -0.0332124
4.4049 -1.86657 -0.0309491
4.2948 -2.06238 -0.0371673
4.17695 -2.26306 0.0175437
3.91251 -2.60168 0.00759831
3.70041 -3.06841 -0.0424886
3.36259 -3.50282 0.00922995
3.25992 -3.77558 -0.0450325
3.22778 -3.81959 -0.00854658
3.32173 -3.67403 -0.010193
3.28437 -3.67065 -0.00668728
2.76231 -4.2553 -0.0428362
1.81437 -5.22815 0.0377244
0.915883 -6.1164 -0.00260785
0.463426 -6.59651 0.0122938
0.420801 -6.44115 -0.0359279
0.25292 -5.86182 0.0570693
0.100442 -5.2562 0.0556096
0.0895963 -4.89159 0.0241097
0.0447642 -5.37482 0.0653056
0.0822586 -5.58855 0.039893
0.00467151 -5.81043 0.0083947
0.138959 -5.96884 0.0500433
0.0507916 -6.29009 0.0496806
0.0687355 -6.73229 0.0586879
0.0017623 -7.10029 0.0354682
-0.0395515 -7.39731 0.0579042
0.0857232 -7.1979 0.019479
-0.0314281 -6.90187 -0.00291342
0.0213809 -6.19677 0.0187883
0 -6.04178 0
0 0 0
4.93279 0.00523629 0
4.94624 -0.102771 0.0669721
4.95903 -0.167721 0.000262924
4.94852 0.0800726 0.0169285
5.01838 0.249414 0.0163202
4.89156 0.451182 0.0492543
4.98923 0.483019 -0.0345635
4.91356 0.350919 0.0277706
5.03872 0.303327 -0.00713916
4.98005 0.183813 0.00749211
5.0164 0.250797 0.0921575
4.92492 0.463295 0.0658076
4.9724 0.431911 0.0758352
5.00161 0.211198 -0.0411131
5.00605 -0.143108 0.0741438
4.91508 -0.4652 -0.00885932
4.90991 -0.859265 -0.0200073
4.81027 -1.08174 -0.0339076
4.71913 -1.31714 0.00116295
4.60364 -1.35005 -0.0300606
4.53712 -1.66029 -0.00998808
4.33489 -1.88837 -0.0232506
4.15201 -2.26863 -0.0528076
3.92591 -2.61669 0.0338113
3.6774 -3.07174 0.0401529
3.42718 -3.34964 0.0530564
3.40734 -3.55036 0.00700814
3.20664 -3.85632 0.0262416
3.21472 -3.84023 0.0378121
2.89104 -4.31109 0.0362398
2.00617 -5.22591 -0.028189
0.857941 -6.1527 0.0596387
0.443996 -6.71065 -0.015012
0.410737 -6.51541 0.0258687
0.182421 -5.85134 0.0164892
0.10694 -5.18713 0.00563628
0.0346496 -5.07489 0.00608682
0.0747844 -5.24203 0.00471847
0.0504442 -5.56702 0.034462
-0.0051183 -5.50424 0.0261316
0.0394264 -5.53709 0.0890206
0.0277087 -5.6476 -0.0187029
0.0379385 -5.95793 0.0967908
0.00473677 -6.20355 -0.0309869
0.0396696 -6.42172 0.0632021
0.0145854 -6.50864 -0.0510197
0.0288023 -6.22405 0.043696
0.0393566 -5.81156 -0.0224177
0 -5.63818 0
0 0 0
4.93279 0.00523629 0
4.94253 0.00378907 -0.023686
4.92671 -0.0138174 -0.0072492
4.91561 -0.026288 0.0145115
4.9625 0.0149175 -0.0392904
4.94453 -0.0364773 -0.0497253
4.98666 -0.0143921 -0.0058859
4.98145 -0.0737558 -0.0280167
4.97748 -0.0295996 -0.0424568
4.97567 0.00650442 -0.0185938
4.97401 -0.0652759 -0.011487
4.95283 -0.137708 0.0442755
5.02481 -0.0920391 0.0522407
4.9993 -0.200876 -0.025117
5.03504 -0.255252 -0.0599387
5.07358 -0.375117 -0.0285557
5.05859 -0.538446 -0.0730392
5.00058 -0.814532 -0.0121649
4.83044 -0.971575 -0.0413028
4.77709 -1.25328 -0.0367944
4.541 -1.58403 0.00273623
4.34975 -1.94506 0.016841
4.15086 -2.23047 -0.00140665
3.93313 -2.59092 0.00120157
3.73431 -2.86127 0.0282043
3.61874 -3.16027 0.0210984
3.36422 -3.49727 0.059023
3.17569 -3.80462 -0.0094315
3.00834 -4.08849 0.0290017
2.82464 -4.45399 -0.0235751
2.56679 -5.06436 -0.0806593
1.45067 -6.07646 -0.0852298
0.5303 -6.715 -0.0206972
0.110179 -5.95074 -0.078339
-0.0432235 -5.30089 -0.13025
0.0149287 -5.15198 0.0512959
0.145255 -5.20034 0.0144452
0.0427491 -5.26074 0.0693245
0.0276565 -5.20042 0.0277469
0.0263987 -5.23928 0.0929693
-0.0271549 -5.21706 0.0998964
0.0895291 -5.21719 0.110217
0.0436095 -5.2426 0.200054
0.00523693 -5.28052 0.192195
0.0268015 -5.33923 0.0657772
0.0129609 -5.37097 0.0416946
0.0586583 -5.36608 0.00933607
0.00383521 -5.37129 0.0329941
0 -5.40075 0
0 0 0
4.93279 0.00523629 0
4.90985 0.00283101 0.0885908
4.94436 -0.0361637 0.18166
4.98247 0.0146595 0.215947
4.91653 -0.0089626 0.087277
4.96296 -0.0352311 -0.00693511
4.96222 -0.0205273 0.166153
4.88929 -0.0626754 0.249166
4.9889 -0.0614645 0.260612
4.96544 -0.0304424 0.283832
4.99919 -0.0204367 0.0797434
4.93645 -0.0557897 0.000795894
4.96755 -0.10753 0.0207375
4.94161 -0.145943 0.130982
4.91487 -0.22476 0.420453
4.95032 -0.297152 0.529136
4.85691 -0.498761 0.462331
4.79469 -0.652436 0.408597
4.64344 -0.970041 0.0439008
4.36697 -1.20017 -0.287899
4.22049 -1.551 -0.462038
4.0704 -1.83617 -0.393486
3.89678 -2.19533 -0.304666
3.66122 -2.47128 -0.0735363
3.44416 -2.87346 0.0758585
3.27947 -3.10348 -0.0215362
3.10904 -3.45426 0.0565782
2.89516 -3.76108 -0.151406
2.72135 -4.06812 -0.327337
2.38112 -4.43528 -0.0817124
1.81995 -4.62274 1.18022
1.18031 -5.12673 1.06554
0.900765 -5.28023 1.39792
0.60705 -5.22355 1.34031
0.263454 -5.20815 0.74508
0.0938925 -5.16042 -0.0319332
0.00349125 -5.2176 -0.0304106
0.0826081 -5.14281 0.0748227
-0.00915442 -5.21679 0.226275
0.0946758 -5.22215 0.305084
0.0198869 -5.24671 0.430194
0.0956084 -5.25262 0.674093
0.0481493 -5.28312 0.904704
0.133761 -5.29307 0.959969
-0.0174958 -5.32869 1.15485
0.053578 -5.36489 0.964392
0.0127655 -5.34631 0.704219
-0.025267 -5.43915 0.167534
0 -5.30159 0
0 0 0
4.93279 0.00523629 0
4.91312 0.00985971 0.0626296
4.95463 0.015989 0.27826
4.93928 0.0713134 0.366755
4.9681 0.0304234 0.28326
4.95118 0.0291778 0.425768
4.9052 -0.0685393 0.442677
4.93779 -0.0512996 0.416042
4.95731 -0.099276 0.365806
4.94901 -0.0616169 0.160778
4.95022 -0.0402087 0.0010276
4.93407 -0.0339093 -0.0914961
4.98886 -0.131579 -0.0252202
4.90513 -0.188708 0.345494
4.81996 -0.170967 0.926161
4.7741 -0.25877 1.22579
4.80078 -0.399632 1.00335
4.58488 -0.661473 0.512116
4.42625 -0.876538 0.121726
4.02395 -1.19164 -0.926566
3.92751 -1.49017 -0.906412
3.72937 -1.79716 -0.654958
3.49033 -2.11762 -0.468967
3.33614 -2.46051 -0.127033
3.12548 -2.78836 0.0222134
2.94801 -3.12175 -0.00383143
2.76354 -3.42105 -0.061752
2.55132 -3.74546 -0.273108
2.34529 -4.04657 -0.672656
2.03696 -4.33692 -0.0274972
1.20081 -4.63384 1.1964
0.752224 -4.93069 1.88122
0.80897 -5.12634 1.9556
0.81047 -5.18844 1.76602
0.24701 -5.16923 0.548952
0.00846346 -5.15226 -0.111935
0.0673524 -5.12795 -0.0840377
-0.00861497 -5.2111 0.117457
0.0229203 -5.21828 0.225613
-0.0117701 -5.24479 0.529891
0.00557782 -5.28607 0.812615
0.00430706 -5.32767 1.16671
-0.0477635 -5.30757 1.32699
-0.0155191 -5.36669 1.68623
-0.129934 -5.34986 1.85166
0.0755101 -5.45423 1.63327
-0.0448721 -5.38316 0.940166
0.0199806 -5.49055 0.302432
0 -5.29394 0
0 0 0
4.93279 0.00523629 0
4.9344 0.00291866 0.07122
4.97507 -0.0628201 0.303169
4.93078 -0.0188797 0.451576
4.9709 -0.0698379 0.624277
4.96582 -0.0474677 0.59555
5.00937 -0.0531937 0.486145
4.8676 -0.111654 0.416698
5.01089 -0.0799879 0.114609
4.93228 -0.0875825 -0.105965
4.95477 -0.0895204 -0.235653
4.89974 -0.15105 -0.147317
4.93268 -0.127711 -0.0253989
4.92304 -0.175095 0.542089
4.69785 -0.156175 1.1927
4.67769 -0.213248 1.37948
4.65237 -0.324157 1.19903
4.50336 -0.590702 0.804648
4.18125 -0.920681 -0.0568853
3.81866 -1.16797 -0.796273
3.59256 -1.48241 -1.0568
3.43515 -1.8034 -0.807109
3.19833 -2.10414 -0.430562
3.01439 -2.37561 -0.115854
2.81967 -2.76768 0.0349613
2.64535 -3.02044 -0.156691
2.45328 -3.38726 -0.319289
2.27125 -3.62613 -0.602419
2.06231 -3.96723 -0.788467
1.82086 -4.2399 -0.379947
1.13037 -4.595 0.706773
0.819942 -4.81601 1.14053
0.622819 -5.12301 1.47049
0.547145 -5.18354 1.23371
0.308617 -5.10966 0.643463
0.0474857 -5.15582 -0.194797
0.0667546 -5.17146 -0.331831
0.0347313 -5.18425 -0.201763
0.0393887 -5.16964 0.0603131
0.040711 -5.2619 0.341281
0.0446153 -5.22984 0.768555
0.0275975 -5.29396 1.02274
0.0349822 -5.27448 1.41053
-0.0401512 -5.29039 1.75216
-0.0384742 -5.3101 1.84393
-0.0130822 -5.39403 1.53972
-0.0339321 -5.29863 0.977699
0.0313394 -5.36146 0.307085
0 -5.30231 0
0 0 0
4.93279 0.00523629 0
4.95999 0.0126661 0.109578
4.91741 -0.024454 0.264615
4.93701 -0.0441087 0.316159
4.97482 -0.0196433 0.505302
4.96542 -0.0207913 0.504372
4.99184 -0.0191845 0.505483
4.94099 -0.00384157 0.455875
4.9274 -0.0333785 0.173571
4.95259 -0.026105 -0.0528455
4.95122 -0.0540652 -0.290907
4.88841 -0.0621617 -0.264196
4.91407 -0.138792 0.0286902
4.82157 -0.110452 0.668021
4.64094 -0.178006 1.50063
4.46203 -0.16958 1.82464
4.53137 -0.325089 1.45626
4.31954 -0.605448 0.829525
3.88498 -0.865324 0.0673637
3.46267 -1.16129 -0.672103
3.23736 -1.46944 -1.05328
3.06345 -1.77086 -0.830122
2.86843 -2.07621 -0.583194
2.62941 -2.44529 -0.334796
2.42196 -2.67418 -0.164725
2.32694 -3.07873 -0.268417
2.11722 -3.35388 -0.551719
1.94355 -3.60507 -0.70998
1.70164 -3.97683 -0.747985
1.49423 -4.2549 -0.502239
1.01531 -4.52151 0.312663
0.614555 -4.81937 0.974462
0.485031 -5.08833 1.2583
0.401131 -5.17367 1.01842
0.213062 -5.1419 0.444326
0.0470474 -5.17676 -0.163178
0.0162283 -5.18787 -0.63252
0.0102677 -5.20797 -0.8703
0.070488 -5.30898 -0.787982
-0.0146301 -5.31715 -0.334044
0.0373186 -5.25886 0.0311089
-0.0407353 -5.32427 0.422994
-0.00415876 -5.31928 0.770292
0.00581873 -5.35886 1.03248
0.072741 -5.35407 1.06843
-0.106444 -5.32647 0.914693
0.0772726 -5.3925 0.554293
-0.0421582 -5.37881 0.242631
0 -5.37464 0
0 0 0
4.93279 0.00523629 0
4.9278 0.0191726 0.0911469
4.96397 -0.0419912 0.200697
4.90126 -0.0837474 0.306645
4.89652 -0.0212567 0.492025
4.91479 -0.0506773 0.617842
4.9803 -0.0668467 0.639896
4.8968 -0.11666 0.622338
4.99242 -0.0994206 0.288489
4.87754 -0.0972619 0.0652518
4.98076 -0.0871434 -0.317803
4.9573 -0.0871433 -0.415629
4.94023 -0.108845 -0.0693248
4.85553 -0.199985 0.630433
4.48738 -0.181855 1.59479
4.43018 -0.169756 1.96459
4.35621 -0.319808 1.69021
4.19044 -0.521391 0.959393
3.84219 -0.81748 0.521194
3.16916 -1.11632 -0.662547
2.90632 -1.46729 -1.04511
2.76069 -1.71045 -0.934755
2.52294 -2.062 -0.702855
2.33714 -2.39053 -0.447758
2.1563 -2.67208 -0.399422
1.97807 -2.97368 -0.379775
1.80193 -3.30299 -0.535842
1.56039 -3.61075 -0.639825
1.40034 -3.93046 -0.795809
1.1962 -4.22937 -0.620435
0.810888 -4.51921 0.188126
0.446638 -4.83589 0.861565
0.320369 -5.02683 0.964811
0.318778 -5.10879 0.675363
0.171542 -5.13008 0.232338
0.0517908 -5.12511 -0.311187
0.0190935 -5.17595 -0.909173
0.0220669 -5.22205 -1.27568
0.00360566 -5.22776 -1.24338
0.022409 -5.30831 -0.988511
-0.00462617 -5.26865 -0.61829
0.0105394 -5.32785 -0.0863776
-0.0360874 -5.25973 0.241092
-0.0168316 -5.38687 0.415248
-0.0811877 -5.28074 0.444689
-0.0249597 -5.35277 0.34203
0.00469973 -5.3285 0.0596361
0.0482459 -5.30433 -0.00455391
0 -5.42353 0
0 0 0
4.93279 0.00523629 0
4.95794 0.0236265 0.0721833
4.93562 -0.0162406 0.133753
4.91334 0.000732861 0.28041
4.94318 1.45578e-05 0.378398
4.92422 -0.0397065 0.274608
4.98471 -0.0212375 0.39741
4.94949 -0.0521483 0.329556
4.93931 -0.000189093 0.290059
4.89973 -0.0640234 -0.00333755
4.95862 -0.110275 -0.287583
4.88734 -0.0489491 -0.366995
4.99365 -0.0956038 -0.19252
4.8249 -0.0786786 0.506664
4.48842 -0.159342 1.71432
4.18851 -0.141198 2.3409
4.36987 -0.29144 2.09534
4.34554 -0.442788 1.79728
3.75854 -0.793756 0.888732
2.95836 -1.02804 -0.345576
2.58824 -1.3853 -0.949832
2.42372 -1.72665 -0.833269
2.228 -2.02004 -0.474499
1.9991 -2.34015 -0.231514
1.83863 -2.61595 -0.330193
1.65069 -2.97545 -0.350501
1.46873 -3.28258 -0.385371
1.26442 -3.58715 -0.514026
1.06385 -3.8692 -0.749058
0.94844 -4.20784 -0.815008
0.588423 -4.45504 0.0675808
0.373606 -4.73976 0.37074
0.175635 -4.98989 0.747176
0.192005 -5.11438 0.785676
0.130204 -5.16308 0.344298
-0.0188237 -5.16547 -0.450361
0.0499139 -5.22968 -0.916116
-0.0109988 -5.16898 -1.17626
0.00447177 -5.25527 -1.29731
0.0836206 -5.21615 -1.12978
0.00536396 -5.22548 -0.850109
0.00900065 -5.27399 -0.400442
-0.0222711 -5.30395 -0.11782
0.0201237 -5.33959 -0.027482
-0.0543853 -5.35218 0.0136215
0.0208376 -5.36156 -0.036953
-0.0430705 -5.40423 -0.142535
0.059772 -5.34755 -0.155958
0 -5.38116 0
0 0 0
4.93279 0.00523629 0
4.91957 0.0235633 0.0964446
4.99372 -0.0146531 0.133184
4.86884 0.0325218 0.095466
4.92391 -0.064957 0.128526
4.90561 -0.0245341 0.027025
4.99618 -0.0580305 -0.0591245
4.85499 -0.0716083 0.124582
4.98298 -0.10453 0.0318179
4.90217 -0.0192109 0.00833235
4.94168 -0.177195 -0.0886903
4.93465 -0.154325 -0.113903
4.91464 -0.157531 -0.0881899
4.84875 -0.0711494 0.374668
4.5815 -0.103018 1.40582
4.415 -0.0896968 1.47928
4.20838 0.0261919 1.38271
3.87323 -0.267636 0.97579
3.10573 -0.758654 0.87983
2.55569 -1.04049 -0.338606
2.27288 -1.37212 -0.56373
2.10166 -1.64128 -0.413823
1.87783 -1.96229 -0.232525
1.71672 -2.27872 -0.0390338
1.5152 -2.63361 -0.137669
1.33679 -2.86256 -0.188678
1.16036 -3.22195 -0.196766
0.925836 -3.54227 -0.305359
0.678593 -3.84334 -0.408388
0.57936 -4.15463 -0.289057
0.370762 -4.42187 -0.0185041
0.189184 -4.73095 0.228158
0.0645655 -4.88758 0.25654
0.0715528 -5.04407 0.400485
0.0669897 -5.12116 0.12615
0.050186 -5.21136 -0.2253
-0.0775871 -5.19137 -0.670031
0.0126078 -5.23528 -0.902368
-0.00461574 -5.29664 -0.996548
-0.0196593 -5.26661 -0.939709
0.00580106 -5.28767 -0.709843
-0.000577439 -5.30066 -0.520972
-0.0783353 -5.31969 -0.382102
0.0729067 -5.32337 -0.335533
-0.00887364 -5.38122 -0.226207
0.041276 -5.36267 -0.216206
-0.0284731 -5.32156 -0.206777
-0.0226255 -5.37502 -0.0604498
0 -5.28398 0
0 0 0
4.93279 0.00523629 0
4.9223 0.0344728 -0.0120941
4.95579 -0.0864576 0.0189693
4.97406 -0.0179374 -0.0589548
4.95635 -0.0419326 0.050028
4.86781 0.00515174 -0.00229178
4.92703 -0.0651144 0.0104403
4.93728 -0.0295571 0.0199169
4.96436 -0.0726679 -0.0542158
4.92006 -0.11417 -0.0600057
4.89411 -0.0456933 -0.0181498
4.88831 -0.100959 -0.0157296
4.96806 -0.0972413 -0.0197098
4.95017 -0.201484 -0.052844
5.04939 0.200943 -0.122576
4.76652 0.955288 -0.140601
4.40932 1.45367 -0.037783
3.37367 0.545971 -0.0679609
2.41934 -0.441144 -0.0932732
2.18999 -1.04347 -0.0499129
1.99386 -1.28455 -0.0332365
1.73304 -1.65963 -0.00303108
1.55035 -1.84499 -0.048228
1.3901 -2.25438 -0.104776
1.17197 -2.53868 -0.0232226
0.977958 -2.80139 -0.0545974
0.823067 -3.18394 -0.00418244
0.609357 -3.47733 -0.043981
0.396275 -3.81898 0.0129145
0.174898 -4.13381 -0.0341056