# vtk DataFile Version 3.0
vtk output
ASCII
DATASET UNSTRUCTURED_GRID
FIELD FieldData 2
TIME 1 1 double
0
CYCLE 1 1 int
0
POINTS 32 float
0 0 0
0 1.225 0
0 2.45 0
0 3.675 0
0 4.9 0
0 6.125 0
0 7.35 0
0 8.575 0
0 9.8 0
0 11.025 0
0 12.25 0
1.525 0 0
1.525 1.225 0
1.525 2.45 0
1.525 3.675 0
1.525 4.9 0
1.525 6.125 0
1.525 7.35 0
1.525 8.575 0
1.525 9.8 0
1.525 11.025 0
1.525 12.25 0
0.7625 0.6125 0
0.7625 1.8375 0
0.7625 3.0625 0
0.7625 4.2875 0
0.7625 5.5125 0
0.7625 6.7375 0
0.7625 7.9625 0
0.7625 9.1875 0
0.7625 10.4125 0
0.7625 11.6375 0

CELLS 40 200
4 1 22 0 0
4 12 22 1 1
4 11 22 12 12
4 0 22 11 11
4 2 23 1 1
4 13 23 2 2
4 1 23 12 12
4 3 24 2 2
4 2 24 13 13
4 14 25 15 15
4 12 23 13 13
4 14 24 3 3
4 13 24 14 14
4 4 25 3 3
4 15 25 4 4
4 3 25 14 14
4 5 26 4 4
4 15 26 16 16
4 4 26 15 15
4 17 27 6 6
4 16 26 5 5
4 6 27 5 5
4 16 27 17 17
4 5 27 16 16
4 7 28 6 6
4 18 28 7 7
4 17 28 18 18
4 6 28 17 17
4 8 29 7 7
4 7 29 18 18
4 19 29 8 8
4 18 29 19 19
4 9 30 8 8
4 20 30 9 9
4 19 30 20 20
4 8 30 19 19
4 10 31 9 9
4 21 31 10 10
4 20 31 21 21
4 9 31 20 20

CELL_TYPES 40
5
5
5
5
5
5
5
5
5
5
5
5
5
5
5
5
5
5
5
5
5
5
5
5
5
5
5
5
5
5
5
5
5
5
5
5
5
5
5
5

POINT_DATA 32
SCALARS NODE_ID int 1
LOOKUP_TABLE default
1
2
3
4
5
6
7
8
9
10
11
12
13
14
15
16
17
18
19
20
21
22
23
24
25
26
27
28
29
30
31
32

CELL_DATA 40
SCALARS ELEMENT_ID int 1
LOOKUP_TABLE default
1
2
3
4
5
6
8
9
12
15
7
10
11
13
14
16
17
19
20
22
18
21
23
24
25
26
27
28
29
32
30
31
33
34
35
36
37
38
39
40

SCALARS PART_ID int 1
LOOKUP_TABLE default
1
1
1
1
1
1
1
1
1
1
1
1
1
1
1
1
1
1
1
1
1
1
1
1
1
1
1
1
1
1
1
1
1
1
1
1
1
1
1
1

SCALARS EROSION_STATUS int 1
LOOKUP_TABLE default
1
1
1
1
1
1
1
1
1
1
1
1
1
1
1
1
1
1
1
1
1
1
1
1
1
1
1
1
1
1
1
1
1
1
1
1
1
1
1
1

