# vtk DataFile Version 3.0
vtk output
ASCII
DATASET UNSTRUCTURED_GRID
FIELD FieldData 2
TIME 1 1 double
2000.5
CYCLE 1 1 int
0
POINTS 32 float
0 0 0
0 1.23019 -0.140029
0 2.43004 -0.4089
0 3.63105 -0.683024
0 4.84819 -0.915145
0 6.0745 -1.08395
0 7.30847 -1.22234
0 8.5425 -1.3401
0 9.76818 -1.45096
0 10.9984 -1.51385
0 12.25 -1.53062
1.52181 0 0
1.52352 1.23095 -0.140138
1.52396 2.43012 -0.408879
1.52284 3.63093 -0.682934
1.52165 4.84826 -0.914969
1.52192 6.07529 -1.08403
1.52255 7.30818 -1.22224
1.52308 8.54111 -1.33993
1.5231 9.76858 -1.45094
1.52243 10.9994 -1.51401
1.52097 12.25 -1.53085
0.761357 0.619101 -0.036
0.761854 1.82999 -0.275162
0.761741 3.03057 -0.545
0.761157 4.23689 -0.81323
0.760937 5.46134 -1.00266
0.761054 6.69109 -1.15805
0.761354 7.92527 -1.28245
0.761699 9.15541 -1.39749
0.761407 10.3826 -1.48916
0.760603 11.6246 -1.52723

CELLS 40 200
4 1 22 0 0
4 12 22 1 1
4 11 22 12 12
4 0 22 11 11
4 2 23 1 1
4 13 23 2 2
4 1 23 12 12
4 3 24 2 2
4 2 24 13 13
4 14 25 15 15
4 12 23 13 13
4 14 24 3 3
4 13 24 14 14
4 4 25 3 3
4 15 25 4 4
4 3 25 14 14
4 5 26 4 4
4 15 26 16 16
4 4 26 15 15
4 17 27 6 6
4 16 26 5 5
4 6 27 5 5
4 16 27 17 17
4 5 27 16 16
4 7 28 6 6
4 18 28 7 7
4 17 28 18 18
4 6 28 17 17
4 8 29 7 7
4 7 29 18 18
4 19 29 8 8
4 18 29 19 19
4 9 30 8 8
4 20 30 9 9
4 19 30 20 20
4 8 30 19 19
4 10 31 9 9
4 21 31 10 10
4 20 31 21 21
4 9 31 20 20

CELL_TYPES 40
5
5
5
5
5
5
5
5
5
5
5
5
5
5
5
5
5
5
5
5
5
5
5
5
5
5
5
5
5
5
5
5
5
5
5
5
5
5
5
5

POINT_DATA 32
SCALARS NODE_ID int 1
LOOKUP_TABLE default
1
2
3
4
5
6
7
8
9
10
11
12
13
14
15
16
17
18
19
20
21
22
23
24
25
26
27
28
29
30
31
32

CELL_DATA 40
SCALARS ELEMENT_ID int 1
LOOKUP_TABLE default
1
2
3
4
5
6
8
9
12
15
7
10
11
13
14
16
17
19
20
22
18
21
23
24
25
26
27
28
29
32
30
31
33
34
35
36
37
38
39
40

SCALARS PART_ID int 1
LOOKUP_TABLE default
1
1
1
1
1
1
1
1
1
1
1
1
1
1
1
1
1
1
1
1
1
1
1
1
1
1
1
1
1
1
1
1
1
1
1
1
1
1
1
1

SCALARS EROSION_STATUS int 1
LOOKUP_TABLE default
1
1
1
1
1
1
1
1
1
1
1
1
1
1
1
1
1
1
1
1
1
1
1
1
1
1
1
1
1
1
1
1
1
1
1
1
1
1
1
1

