# vtk DataFile Version 3.0
vtk output
ASCII
DATASET UNSTRUCTURED_GRID
FIELD FieldData 2
TIME 1 1 double
0.0200005
CYCLE 1 1 int
0
POINTS 120 float
1.09894e-15 1.09894e-15 0
10 1.09894e-15 0
10 10 0
1.09894e-15 10 0
1.09892e-15 1.09892e-15 10.5
10 1.09892e-15 10.5
10 10 10.5
1.09892e-15 10 10.5
0 0 0
10 0 0
10 10 0
0 10 0
0.499997 0 10
10.5 0 10
10.5 10 10
0.499997 10 10
-0.249999 -0.249999 -0.249999
10.25 -0.249999 -0.249999
10.25 10.25 -0.249999
-0.249999 10.25 -0.249999
-0.249999 -0.249999 10.25
10.25 -0.249999 10.25
10.25 10.25 10.25
-0.249999 10.25 10.25
-0.00255173 -0.00255169 0
10.0026 -0.00255169 0
10.0026 10.0026 0
-0.00255173 10.0026 0
-0.00255173 -0.00255169 10.5
10.0026 -0.00255169 10.5
10.0026 10.0026 10.5
-0.00255173 10.0026 10.5
0 0 0
10 0 0
10 10 0
0 10 0
0.499997 0 10
10.5 0 10
10.5 10 10
0.499997 10 10
-0.249999 -0.249999 -0.249999
10.25 -0.249999 -0.249999
10.25 10.25 -0.249999
-0.249999 10.25 -0.249999
-0.249999 -0.249999 10.25
10.25 -0.249999 10.25
10.25 10.25 10.25
-0.249999 10.25 10.25
0.0537601 0.0537601 0
9.94624 0.0537601 0
9.94624 9.94624 0
0.0537601 9.94624 0
0.0537601 0.0537601 10.5
9.94624 0.0537601 10.5
9.94624 9.94624 10.5
0.0537601 9.94624 10.5
0 0 0
10 0 0
10 10 0
0 10 0
0.499997 0 10
10.5 0 10
10.5 10 10
0.499997 10 10
-0.249999 -0.249999 -0.249999
10.25 -0.249999 -0.249999
10.25 10.25 -0.249999
-0.249999 10.25 -0.249999
-0.249999 -0.249999 10.25
10.25 -0.249999 10.25
10.25 10.25 10.25
-0.249999 10.25 10.25
-0.00214562 -0.00214562 0
10.0021 -0.00214562 0
10.0021 10.0021 0
-0.00214562 10.0021 0
-0.00214562 -0.00214562 10.5
10.0021 -0.00214562 10.5
10.0021 10.0021 10.5
-0.00214562 10.0021 10.5
0 0 0
10 0 0
10 10 0
0 10 0
0.499997 0 10
10.5 0 10
10.5 10 10
0.499997 10 10
-0.249999 -0.249999 -0.249999
10.25 -0.249999 -0.249999
10.25 10.25 -0.249999
-0.249999 10.25 -0.249999
-0.249999 -0.249999 10.25
10.25 -0.249999 10.25
10.25 10.25 10.25
-0.249999 10.25 10.25
-4.0133e-08 4.0133e-08 0
10 4.0133e-08 0
10 10 0
-4.0133e-08 10 0
-4.0133e-08 4.0133e-08 10.5
10 4.0133e-08 10.5
10 10 10.5
-4.0133e-08 10 10.5
0 0 0
10 0 0
10 10 0
0 10 0
0.499997 0 10
10.5 0 10
10.5 10 10
0.499997 10 10
-0.249999 -0.249999 -0.249999
10.25 -0.249999 -0.249999
10.25 10.25 -0.249999
-0.249999 10.25 -0.249999
-0.249999 -0.249999 10.25
10.25 -0.249999 10.25
10.25 10.25 10.25
-0.249999 10.25 10.25

CELLS 15 135
8 0 1 2 3 4 5 6 7
8 8 9 10 11 12 13 14 15
8 16 17 18 19 20 21 22 23
8 24 25 26 27 28 29 30 31
8 32 33 34 35 36 37 38 39
8 40 41 42 43 44 45 46 47
8 48 49 50 51 52 53 54 55
8 56 57 58 59 60 61 62 63
8 64 65 66 67 68 69 70 71
8 72 73 74 75 76 77 78 79
8 80 81 82 83 84 85 86 87
8 88 89 90 91 92 93 94 95
8 96 97 98 99 100 101 102 103
8 104 105 106 107 108 109 110 111
8 112 113 114 115 116 117 118 119

CELL_TYPES 15
12
12
12
12
12
12
12
12
12
12
12
12
12
12
12

POINT_DATA 120
SCALARS NODE_ID int 1
LOOKUP_TABLE default
1001
1002
1003
1004
1005
1006
1007
1008
2001
2002
2003
2004
2005
2006
2007
2008
3001
3002
3003
3004
3005
3006
3007
3008
4001
4002
4003
4004
4005
4006
4007
4008
5001
5002
5003
5004
5005
5006
5007
5008
6001
6002
6003
6004
6005
6006
6007
6008
7001
7002
7003
7004
7005
7006
7007
7008
8001
8002
8003
8004
8005
8006
8007
8008
9001
9002
9003
9004
9005
9006
9007
9008
10001
10002
10003
10004
10005
10006
10007
10008
11001
11002
11003
11004
11005
11006
11007
11008
12001
12002
12003
12004
12005
12006
12007
12008
13001
13002
13003
13004
13005
13006
13007
13008
14001
14002
14003
14004
14005
14006
14007
14008
15001
15002
15003
15004
15005
15006
15007
15008

CELL_DATA 15
SCALARS ELEMENT_ID int 1
LOOKUP_TABLE default
1001
2001
3001
4001
5001
6001
7001
8001
9001
10001
11001
12001
13001
14001
15001

SCALARS PART_ID int 1
LOOKUP_TABLE default
1
2
3
4
5
6
7
8
9
10
11
12
13
14
15

SCALARS EROSION_STATUS int 1
LOOKUP_TABLE default
1
1
1
1
1
1
1
1
1
1
1
1
1
1
1

SCALARS 3DELEM_Plastic_Strain float 1
LOOKUP_TABLE default
0
0
0
0
0
0
0
0
0
0
0
0
0
0
0

SCALARS 3DELEM_Specific_Energy float 1
LOOKUP_TABLE default
1.40867e+09
6.05253e+08
4.56774e+09
1.40875e+11
4.26704e+10
4.23322e+11
1.8915e+11
7.15457e+10
4.62665e+09
1.40796e+11
7.3443e+10
4.22836e+11
1.33315e+09
6.08326e+08
4.62672e+09

SCALARS 3DELEM_Von_Mises float 1
LOOKUP_TABLE default
9.99994
8.64648
0
1.72623
0.236022
0
5.69377
1.54365
0
1.73501
1.50069
4.71028e-16
9.99994
8.64648
0

