# vtk DataFile Version 3.0
vtk output
ASCII
DATASET UNSTRUCTURED_GRID
FIELD FieldData 2
TIME 1 1 double
0
CYCLE 1 1 int
0
POINTS 1331 float
5 -5 0
5 -4 0
5 -3 0
5 -2 0
5 -1 0
5 -7.25266e-16 0
5 1 0
5 2 0
5 3 0
5 4 0
5 5 0
4 5 0
3 5 0
2 5 0
1 5 0
3.329e-17 5 0
-1 5 0
-2 5 0
-3 5 0
-4 5 0
-5 5 0
-5 4 0
-5 3 0
-5 2 0
-5 1 0
-5 -6.83422e-17 0
-5 -1 0
-5 -2 0
-5 -3 0
-5 -4 0
-5 -5 0
-4 -5 0
-3 -5 0
-2 -5 0
-1 -5 0
6.36574e-16 -5 0
1 -5 0
2 -5 0
3 -5 0
4 -5 0
-4 2.98466e-16 0
-3 -5.46051e-16 0
-2 -4.63044e-16 0
-1 4.8143e-16 0
2.03634e-16 -1.94181e-16 0
1 4.51592e-16 0
2 1.96305e-16 0
3 -2.88363e-17 0
4 2.21674e-16 0
1.45805e-16 1 0
1.10461e-16 2 0
3.55486e-16 3 0
2.74479e-16 4 0
-1 2 0
-2 2 0
-3 2 0
-4 2 0
-2 1 0
-1 1 0
-3 1 0
-4 1 0
-2 4 0
-2 3 0
-1 4 0
-1 3 0
-4 4 0
-3 4 0
-4 3 0
-3 3 0
4 2 0
3 2 0
2 2 0
1 2 0
3 1 0
4 1 0
2 1 0
1 1 0
3 4 0
3 3 0
4 4 0
4 3 0
1 4 0
2 4 0
1 3 0
2 3 0
1.54489e-16 -4 0
2.55194e-16 -3 0
-5.99979e-17 -2 0
-6.37487e-17 -1 0
-1 -3 0
-2 -3 0
-3 -3 0
-4 -3 0
-2 -4 0
-1 -4 0
-3 -4 0
-4 -4 0
-2 -1 0
-2 -2 0
-1 -1 0
-1 -2 0
-3 -1 0
-3 -2 0
-4 -1 0
-4 -2 0
4 -3 0
3 -3 0
2 -3 0
1 -3 0
3 -4 0
4 -4 0
2 -4 0
1 -4 0
3 -1 0
3 -2 0
4 -1 0
4 -2 0
1 -1 0
2 -1 0
1 -2 0
2 -2 0
-2 2 0.699548
-2 1 0.699548
-1 1 0.699548
-1 2 0.699548
1.41426e-16 1 0.699548
-2.3113e-17 2 0.699548
-2 4.38769e-16 0.699548
-1 -5.4325e-16 0.699548
-1.39735e-16 3.1242e-16 0.699548
-3 2 0.699548
-3 1 0.699548
-3 6.41553e-16 0.699548
-5 2 0.699548
-5 1 0.699548
-4 1 0.699548
-4 2 0.699548
-5 4.2579e-16 0.699548
-4 -2.69278e-17 0.699548
-2 5 0.699548
-2 4 0.699548
-1 4 0.699548
-1 5 0.699548
-1.47696e-16 4 0.699548
1.18615e-16 5 0.699548
-2 3 0.699548
-1 3 0.699548
-3.55004e-16 3 0.699548
-5 5 0.699548
-5 4 0.699548
-4 4 0.699548
-4 5 0.699548
-3 4 0.699548
-3 5 0.699548
-4 3 0.699548
-5 3 0.699548
-3 3 0.699548
4 2 0.699548
4 1 0.699548
5 1 0.699548
5 2 0.699548
4 -1.27594e-16 0.699548
5 4.6768e-16 0.699548
3 2 0.699548
3 1 0.699548
3 9.04669e-17 0.699548
2 2 0.699548
2 1 0.699548
2 -9.83831e-17 0.699548
1 2 0.699548
1 1 0.699548
1 -2.35831e-16 0.699548
3 5 0.699548
3 4 0.699548
4 4 0.699548
4 5 0.699548
5 4 0.699548
5 5 0.699548
3 3 0.699548
4 3 0.699548
5 3 0.699548
1 4 0.699548
1 5 0.699548
2 4 0.699548
2 5 0.699548
1 3 0.699548
2 3 0.699548
-2 -3 0.699548
-2 -4 0.699548
-1 -4 0.699548
-1 -3 0.699548
3.14023e-16 -4 0.699548
-1.16617e-17 -3 0.699548
-2 -5 0.699548
-1 -5 0.699548
7.77288e-17 -5 0.699548
-3 -3 0.699548
-3 -4 0.699548
-3 -5 0.699548
-5 -3 0.699548
-5 -4 0.699548
-4 -4 0.699548
-4 -3 0.699548
-5 -5 0.699548
-4 -5 0.699548
-2 -1 0.699548
-1 -1 0.699548
-7.8456e-17 -1 0.699548
-2 -2 0.699548
-1 -2 0.699548
-2.212e-17 -2 0.699548
-3 -1 0.699548
-3 -2 0.699548
-5 -1 0.699548
-4 -1 0.699548
-5 -2 0.699548
-4 -2 0.699548
3 -3 0.699548
3 -4 0.699548
4 -4 0.699548
4 -3 0.699548
5 -4 0.699548
5 -3 0.699548
3 -5 0.699548
4 -5 0.699548
5 -5 0.699548
2 -3 0.699548
2 -4 0.699548
2 -5 0.699548
1 -4 0.699548
1 -3 0.699548
1 -5 0.699548
3 -1 0.699548
4 -1 0.699548
5 -1 0.699548
3 -2 0.699548
4 -2 0.699548
5 -2 0.699548
1 -1 0.699548
2 -1 0.699548
1 -2 0.699548
2 -2 0.699548
-2 2 1.39917
-2 1 1.39917
-1 1 1.39917
-1 2 1.39917
-3.58605e-16 1 1.39917
1.38049e-16 2 1.39917
-2 8.02242e-17 1.39917
-1 8.93921e-16 1.39917
1.1364e-16 -7.82761e-17 1.39917
-3 2 1.39917
-3 1 1.39917
-3 7.78527e-17 1.39917
-5 2 1.39917
-5 1 1.39917
-4 1 1.39917
-4 2 1.39917
-5 9.9788e-17 1.39917
-4 6.96736e-16 1.39917
-2 5 1.39917
-2 4 1.39917
-1 4 1.39917
-1 5 1.39917
3.73771e-16 4 1.39917
-8.85635e-17 5 1.39917
-2 3 1.39917
-1 3 1.39917
6.0637e-16 3 1.39917
-5 5 1.39917
-5 4 1.39917
-4 4 1.39917
-4 5 1.39917
-3 4 1.39917
-3 5 1.39917
-4 3 1.39917
-5 3 1.39917
-3 3 1.39917
4 2 1.39917
4 1 1.39917
5 1 1.39917
5 2 1.39917
4 4.57632e-16 1.39917
5 -3.69125e-17 1.39917
3 2 1.39917
3 1 1.39917
3 3.35098e-16 1.39917
2 2 1.39917
2 1 1.39917
2 3.28117e-16 1.39917
1 2 1.39917
1 1 1.39917
1 2.42759e-16 1.39917
3 5 1.39917
3 4 1.39917
4 4 1.39917
4 5 1.39917
5 4 1.39917
5 5 1.39917
3 3 1.39917
4 3 1.39917
5 3 1.39917
1 4 1.39917
1 5 1.39917
2 4 1.39917
2 5 1.39917
1 3 1.39917
2 3 1.39917
-2 -3 1.39917
-2 -4 1.39917
-1 -4 1.39917
-1 -3 1.39917
-1.52072e-16 -4 1.39917
5.02134e-17 -3 1.39917
-2 -5 1.39917
-1 -5 1.39917
-4.31466e-17 -5 1.39917
-3 -3 1.39917
-3 -4 1.39917
-3 -5 1.39917
-5 -3 1.39917
-5 -4 1.39917
-4 -4 1.39917
-4 -3 1.39917
-5 -5 1.39917
-4 -5 1.39917
-2 -1 1.39917
-1 -1 1.39917
2.72869e-16 -1 1.39917
-2 -2 1.39917
-1 -2 1.39917
2.27075e-16 -2 1.39917
-3 -1 1.39917
-3 -2 1.39917
-5 -1 1.39917
-4 -1 1.39917
-5 -2 1.39917
-4 -2 1.39917
3 -3 1.39917
3 -4 1.39917
4 -4 1.39917
4 -3 1.39917
5 -4 1.39917
5 -3 1.39917
3 -5 1.39917
4 -5 1.39917
5 -5 1.39917
2 -3 1.39917
2 -4 1.39917
2 -5 1.39917
1 -4 1.39917
1 -3 1.39917
1 -5 1.39917
3 -1 1.39917
4 -1 1.39917
5 -1 1.39917
3 -2 1.39917
4 -2 1.39917
5 -2 1.39917
1 -1 1.39917
2 -1 1.39917
1 -2 1.39917
2 -2 1.39917
-2 2 2.09909
-2 1 2.09909
-1 1 2.09909
-1 2 2.09909
2.64837e-16 1 2.09909
-1.18837e-16 2 2.09909
-2 4.40991e-16 2.09909
-1 -2.70502e-16 2.09909
1.17649e-16 2.40959e-16 2.09909
-3 2 2.09909
-3 1 2.09909
-3 2.25543e-16 2.09909
-5 2 2.09909
-5 1 2.09909
-4 1 2.09909
-4 2 2.09909
-5 4.75075e-16 2.09909
-4 -3.69126e-17 2.09909
-2 5 2.09909
-2 4 2.09909
-1 4 2.09909
-1 5 2.09909
2.05558e-16 4 2.09909
4.01243e-16 5 2.09909
-2 3 2.09909
-1 3 2.09909
-1.10763e-16 3 2.09909
-5 5 2.09909
-5 4 2.09909
-4 4 2.09909
-4 5 2.09909
-3 4 2.09909
-3 5 2.09909
-4 3 2.09909
-5 3 2.09909
-3 3 2.09909
4 2 2.09909
4 1 2.09909
5 1 2.09909
5 2 2.09909
4 -2.45908e-16 2.09909
5 -1.80433e-16 2.09909
3 2 2.09909
3 1 2.09909
3 3.15515e-17 2.09909
2 2 2.09909
2 1 2.09909
2 -1.4309e-17 2.09909
1 2 2.09909
1 1 2.09909
1 -3.70238e-17 2.09909
3 5 2.09909
3 4 2.09909
4 4 2.09909
4 5 2.09909
5 4 2.09909
5 5 2.09909
3 3 2.09909
4 3 2.09909
5 3 2.09909
1 4 2.09909
1 5 2.09909
2 4 2.09909
2 5 2.09909
1 3 2.09909
2 3 2.09909
-2 -3 2.09909
-2 -4 2.09909
-1 -4 2.09909
-1 -3 2.09909
2.80161e-16 -4 2.09909
2.3118e-16 -3 2.09909
-2 -5 2.09909
-1 -5 2.09909
2.60456e-16 -5 2.09909
-3 -3 2.09909
-3 -4 2.09909
-3 -5 2.09909
-5 -3 2.09909
-5 -4 2.09909
-4 -4 2.09909
-4 -3 2.09909
-5 -5 2.09909
-4 -5 2.09909
-2 -1 2.09909
-1 -1 2.09909
-7.34965e-17 -1 2.09909
-2 -2 2.09909
-1 -2 2.09909
8.54109e-18 -2 2.09909
-3 -1 2.09909
-3 -2 2.09909
-5 -1 2.09909
-4 -1 2.09909
-5 -2 2.09909
-4 -2 2.09909
3 -3 2.09909
3 -4 2.09909
4 -4 2.09909
4 -3 2.09909
5 -4 2.09909
5 -3 2.09909
3 -5 2.09909
4 -5 2.09909
5 -5 2.09909
2 -3 2.09909
2 -4 2.09909
2 -5 2.09909
1 -4 2.09909
1 -3 2.09909
1 -5 2.09909
3 -1 2.09909
4 -1 2.09909
5 -1 2.09909
3 -2 2.09909
4 -2 2.09909
5 -2 2.09909
1 -1 2.09909
2 -1 2.09909
1 -2 2.09909
2 -2 2.09909
-2 2 2.79911
-2 1 2.79911
-1 1 2.79911
-1 2 2.79911
3.15871e-16 1 2.79911
6.86321e-16 2 2.79911
-2 -4.13708e-16 2.79911
-1 3.82029e-18 2.79911
-9.85839e-17 -8.75527e-17 2.79911
-3 2 2.79911
-3 1 2.79911
-3 1.3737e-17 2.79911
-5 2 2.79911
-5 1 2.79911
-4 1 2.79911
-4 2 2.79911
-5 -4.91957e-16 2.79911
-4 -1.30868e-16 2.79911
-2 5 2.79911
-2 4 2.79911
-1 4 2.79911
-1 5 2.79911
5.64317e-17 4 2.79911
-1.10362e-17 5 2.79911
-2 3 2.79911
-1 3 2.79911
2.43271e-16 3 2.79911
-5 5 2.79911
-5 4 2.79911
-4 4 2.79911
-4 5 2.79911
-3 4 2.79911
-3 5 2.79911
-4 3 2.79911
-5 3 2.79911
-3 3 2.79911
4 2 2.79911
4 1 2.79911
5 1 2.79911
5 2 2.79911
4 -2.71347e-17 2.79911
5 4.89224e-19 2.79911
3 2 2.79911
3 1 2.79911
3 -5.60349e-17 2.79911
2 2 2.79911
2 1 2.79911
2 9.40838e-17 2.79911
1 2 2.79911
1 1 2.79911
1 1.94911e-16 2.79911
3 5 2.79911
3 4 2.79911
4 4 2.79911
4 5 2.79911
5 4 2.79911
5 5 2.79911
3 3 2.79911
4 3 2.79911
5 3 2.79911
1 4 2.79911
1 5 2.79911
2 4 2.79911
2 5 2.79911
1 3 2.79911
2 3 2.79911
-2 -3 2.79911
-2 -4 2.79911
-1 -4 2.79911
-1 -3 2.79911
-2.7055e-17 -4 2.79911
-3.33897e-17 -3 2.79911
-2 -5 2.79911
-1 -5 2.79911
-1.78347e-16 -5 2.79911
-3 -3 2.79911
-3 -4 2.79911
-3 -5 2.79911
-5 -3 2.79911
-5 -4 2.79911
-4 -4 2.79911
-4 -3 2.79911
-5 -5 2.79911
-4 -5 2.79911
-2 -1 2.79911
-1 -1 2.79911
1.77741e-16 -1 2.79911
-2 -2 2.79911
-1 -2 2.79911
1.02737e-16 -2 2.79911
-3 -1 2.79911
-3 -2 2.79911
-5 -1 2.79911
-4 -1 2.79911
-5 -2 2.79911
-4 -2 2.79911
3 -3 2.79911
3 -4 2.79911
4 -4 2.79911
4 -3 2.79911
5 -4 2.79911
5 -3 2.79911
3 -5 2.79911
4 -5 2.79911
5 -5 2.79911
2 -3 2.79911
2 -4 2.79911
2 -5 2.79911
1 -4 2.79911
1 -3 2.79911
1 -5 2.79911
3 -1 2.79911
4 -1 2.79911
5 -1 2.79911
3 -2 2.79911
4 -2 2.79911
5 -2 2.79911
1 -1 2.79911
2 -1 2.79911
1 -2 2.79911
2 -2 2.79911
-2 2 3.49922
-2 1 3.49922
-1 1 3.49922
-1 2 3.49922
1.5767e-16 1 3.49922
-1.39221e-16 2 3.49922
-2 -3.82426e-16 3.49922
-1 -4.13992e-16 3.49922
4.29328e-16 -1.96383e-16 3.49922
-3 2 3.49922
-3 1 3.49922
-3 -6.38776e-16 3.49922
-5 2 3.49922
-5 1 3.49922
-4 1 3.49922
-4 2 3.49922
-5 -4.46513e-16 3.49922
-4 -4.88779e-16 3.49922
-2 5 3.49922
-2 4 3.49922
-1 4 3.49922
-1 5 3.49922
8.3092e-17 4 3.49922
-6.09272e-17 5 3.49922
-2 3 3.49922
-1 3 3.49922
1.57051e-16 3 3.49922
-5 5 3.49922
-5 4 3.49922
-4 4 3.49922
-4 5 3.49922
-3 4 3.49922
-3 5 3.49922
-4 3 3.49922
-5 3 3.49922
-3 3 3.49922
4 2 3.49922
4 1 3.49922
5 1 3.49922
5 2 3.49922
4 3.66776e-16 3.49922
5 4.42879e-16 3.49922
3 2 3.49922
3 1 3.49922
3 2.55376e-16 3.49922
2 2 3.49922
2 1 3.49922
2 1.64769e-16 3.49922
1 2 3.49922
1 1 3.49922
1 -1.18427e-16 3.49922
3 5 3.49922
3 4 3.49922
4 4 3.49922
4 5 3.49922
5 4 3.49922
5 5 3.49922
3 3 3.49922
4 3 3.49922
5 3 3.49922
1 4 3.49922
1 5 3.49922
2 4 3.49922
2 5 3.49922
1 3 3.49922
2 3 3.49922
-2 -3 3.49922
-2 -4 3.49922
-1 -4 3.49922
-1 -3 3.49922
-3.92098e-16 -4 3.49922
-4.16997e-16 -3 3.49922
-2 -5 3.49922
-1 -5 3.49922
-2.54584e-16 -5 3.49922
-3 -3 3.49922
-3 -4 3.49922
-3 -5 3.49922
-5 -3 3.49922
-5 -4 3.49922
-4 -4 3.49922
-4 -3 3.49922
-5 -5 3.49922
-4 -5 3.49922
-2 -1 3.49922
-1 -1 3.49922
-1.95837e-16 -1 3.49922
-2 -2 3.49922
-1 -2 3.49922
-3.34033e-16 -2 3.49922
-3 -1 3.49922
-3 -2 3.49922
-5 -1 3.49922
-4 -1 3.49922
-5 -2 3.49922
-4 -2 3.49922
3 -3 3.49922
3 -4 3.49922
4 -4 3.49922
4 -3 3.49922
[...]
POINT_DATA 1331
SCALARS NODE_ID int 1
LOOKUP_TABLE default
1
2
3
4
5
6
7
8
9
10
11
12
13
14
15
16
17
18
19
20
21
22
23
24
25
26
27
28
29
30
31
32
33
34
35
36
37
38
39
40
41
42
43
44
45
46
47
48
49
50
51
52
53
54
55
56
57
58
59
60
61
62
63
64
65
66
67
68
69
70
71
72
73
74
75
76
77
78
79
80
81
82
83
84
85
86
87
88
89
90
91
92
93
94
95
96
97
98
99
100
101
102
103
104
105
106
107
108
109
110
111
112
113
114
115
116
117
118
119
120
121
122
123
124
125
126
127
128
129
130
131
132
133
134
135
136
137
138
139
140
141
142
143
144
145
146
147
148
149
150
151
152
153
154
155
156
157
158
159
160
161
162
163
164
165
166
167
168
169
170
171
172
173
174
175
176
177
178
179
180
181
182
183
184
185
186
187
188
189
190
191
192
193
194
195
196
197
198
199
200
201
202
203
204
205
206
207
208
209
210
211
212
213
214
215
216
217
218
219
220
221
222
223
224
225
226
227
228
229
230
231
232
233
234
235
236
237
238
239
240
241
242
243
244
245
246
247
248
249
250
251
252
253
254
255
256
257
258
259
260
261
262
263
264
265
266
267
268
269
270
271
272
273
274
275
276
277
278
279
280
281
282
283
284
285
286
287
288
289
290
291
292
293
294
295
296
297
298
299
300
301
302
303
304
305
306
307
308
309
310
311
312
313
314
315
316
317
318
319
320
321
322
323
324
325
326
327
328
329
330
331
332
333
334
335
336
337
338
339
340
341
342
343
344
345
346
347
348
349
350
351
352
353
354
355
356
357
358
359
360
361
362
363
364
365
366
367
368
369
370
371
372
373
374
375
376
377
378
379
380
381
382
383
384
385
386
387
388
389
390
391
392
393
394
395
396
397
398
399
400
401
402
403
404
405
406
407
408
409
410
411
412
413
414
415
416
417
418
419
420
421
422
423
424
425
426
427
428
429
430
431
432
433
434
435
436
437
438
439
440
441
442
443
444
445
446
447
448
449
450
451
452
453
454
455
456
457
458
459
460
461
462
463
464
465
466
467
468
469
470
471
472
473
474
475
476
477
478
479
480
481
482
483
484
485
486
487
488
489
490
491
492
493
494
495
496
497
498
499
500
501
502
503
504
505
506
507
508
509
510
511
512
513
514
515
516
517
518
519
520
521
522
523
524
525
526
527
528
529
530
531
532
533
534
535
536
537
538
539
540
541
542
543
544
545
546
547
548
549
550
551
552
553
554
555
556
557
558
559
560
561
562
563
564
565
566
567
568
569
570
571
572
573
574
575
576
577
578
579
580
581
582
583
584
585
586
587
588
589
590
591
592
593
594
595
596
597
598
599
600
601
602
603
604
605
606
607
608
609
610
611
612
613
614
615
616
617
618
619
620
621
622
623
624
625
626
627
628
629
630
631
632
633
634
635
636
637
638
639
640
641
642
643
644
645
646
647
648
649
650
651
652
653
654
655
656
657
658
659
660
661
662
663
664
665
666
667
668
669
670
671
672
673
674
675
676
677
678
679
680
681
682
683
684
685
686
687
688
689
690
691
692
693
694
695
696
697
698
699
700
701
702
703
704
705
706
707
708
709
710
711
712
713
714
715
716
717
718
719
720
721
722
723
724
725
726
727
728
729
730
731
732
733
734
735
736
737
738
739
740
741
742
743
744
745
746
747
748
749
750
751
752
753
754
755
756
757
758
759
760
761
762
763
764
765
766
767
768
769
770
771
772
773
774
775
776
777
778
779
780
781
782
783
784
785
786
787
788
789
790
791
792
793
794
795
796
797
798
799
800
801
802
803
804
805
806
807
808
809
810
811
812
813
814
815
816
817
818
819
820
821
822
823
824
825
826
827
828
829
830
831
832
833
834
835
836
837
838
839
840
841
842
843
844
845
846
847
848
849
850
851
852
853
854
855
856
857
858
859
860
861
862
863
864
865
866
867
868
869
870
871
872
873
874
875
876
877
878
879
880
881
882
883
884
885
886
887
888
889
890
891
892
893
894
895
896
897
898
899
900
901
902
903
904
905
906
907
908
909
910
911
912
913
914
915
916
917
918
919
920
921
922
923
924
925
926
927
928
929
930
931
932
933
934
935
936
937
938
939
940
941
942
943
944
945
946
947
948
949
950
951
952
953
954
955
956
957
958
959
960
961
962
963
964
965
966
967
968
969
970
971
972
973
974
975
976
977
978
979
980
981
982
983
984
985
986
987
988
989
990
991
992
993
994
995
996
997
998
999
1000
1001
1002
1003
1004
1005
1006
1007
1008
1009
1010
1011
1012
1013
1014
1015
1016
1017
1018
1019
1020
1021
1022
1023
1024
1025
1026
1027
1028
1029
1030
1031
1032
1033
1034
1035
1036
1037
1038
1039
1040
1041
1042
1043
1044
1045
1046
1047
1048
1049
1050
1051
1052
1053
1054
1055
1056
1057
1058
1059
1060
1061
1062
1063
1064
1065
1066
1067
1068
1069
1070
1071
1072
1073
1074
1075
1076
1077
1078
1079
1080
1081
1082
1083
1084
1085
1086
1087
1088
1089
1090
1091
1092
1093
1094
1095
1096
1097
1098
1099
1100
1101
1102
1103
1104
1105
1106
1107
1108
1109
1110
1111
1112
1113
1114
1115
1116
1117
1118
1119
1120
1121
1122
1123
1124
1125
1126
1127
1128
1129
1130
1131
1132
1133
1134
1135
1136
1137
1138
1139
1140
1141
1142
1143
1144
1145
1146
1147
1148
1149
1150
1151
1152
1153
1154
1155
1156
1157
1158
1159
1160
1161
1162
1163
1164
1165
1166
1167
1168
1169
1170
1171
1172
1173
1174
1175
1176
1177
1178
1179
1180
1181
1182
1183
1184
1185
1186
1187
1188
1189
1190
1191
1192
1193
1194
1195
1196
1197
1198
1199
1200
1201
1202
1203
1204
1205
1206
1207
1208
1209
1210
1211
1212
1213
1214
1215
1216
1217
1218
1219
1220
1221
1222
1223
1224
1225
1226
1227
1228
1229
1230
1231
1232
1233
1234
1235
1236
1237
1238
1239
1240
1241
1242
1243
1244
1245
1246
1247
1248
1249
1250
1251
1252
1253
1254
1255
1256
1257
1258
1259
1260
1261
1262
1263
1264
1265
1266
1267
1268
1269
1270
1271
1272
1273
1274
1275
1276
1277
1278
1279
1280
1281
1282
1283
1284
1285
1286
1287
1288
1289
1290
1291
1292
1293
1294
1295
1296
1297
1298
1299
1300
1301
1302
1303
1304
1305
1306
1307
1308
1309
1310
1311
1312
1313
1314
1315
1316
1317
1318
1319
1320
1321
1322
1323
1324
1325
1326
1327
1328
1329
1330
1331

VECTORS Velocity float
0 0 0
0 0 0
0 0 0
0 0 0
0 0 0
0 0 0
0 0 0
0 0 0
0 0 0
0 0 0
0 0 0
0 0 0
0 0 0
0 0 0
0 0 0
0 0 0
0 0 0
0 0 0
0 0 0
0 0 0
0 0 0
0 0 0
0 0 0
0 0 0
0 0 0
0 0 0
0 0 0
0 0 0
0 0 0
0 0 0
0 0 0
0 0 0
0 0 0
0 0 0
0 0 0
0 0 0
0 0 0
0 0 0
0 0 0
0 0 0
0 0 0
0 0 0
0 0 0
0 0 0
0 0 0
0 0 0
0 0 0
0 0 0
0 0 0
0 0 0
0 0 0
0 0 0
0 0 0
0 0 0
0 0 0
0 0 0
0 0 0
0 0 0
0 0 0
0 0 0
0 0 0
0 0 0
0 0 0
0 0 0
0 0 0
0 0 0
0 0 0
0 0 0
0 0 0
0 0 0
0 0 0
0 0 0
0 0 0
0 0 0
0 0 0
0 0 0
0 0 0
0 0 0
0 0 0
0 0 0
0 0 0
0 0 0
0 0 0
0 0 0
0 0 0
0 0 0
0 0 0
0 0 0
0 0 0
0 0 0
0 0 0
0 0 0
0 0 0
0 0 0
0 0 0
0 0 0
0 0 0
0 0 0
0 0 0
0 0 0
0 0 0
0 0 0
0 0 0
0 0 0
0 0 0
0 0 0
0 0 0
0 0 0
0 0 0
0 0 0
0 0 0
0 0 0
0 0 0
0 0 0
0 0 0
0 0 0
0 0 0
0 0 0
0 0 0
0 0 0
0 0 0
0 0 0
0 0 0
0 0 0
0 0 0
0 0 0
0 0 0
0 0 0
0 0 0
0 0 0
0 0 0
0 0 0
0 0 0
0 0 0
0 0 0
0 0 0
0 0 0
0 0 0
0 0 0
0 0 0
0 0 0
0 0 0
0 0 0
0 0 0
0 0 0
0 0 0
0 0 0
0 0 0
0 0 0
0 0 0
0 0 0
0 0 0
0 0 0
0 0 0
0 0 0
0 0 0
0 0 0
0 0 0
0 0 0
0 0 0
0 0 0
0 0 0
0 0 0
0 0 0
0 0 0
0 0 0
0 0 0
0 0 0
0 0 0
0 0 0
0 0 0
0 0 0
0 0 0
0 0 0
0 0 0
0 0 0
0 0 0
0 0 0
0 0 0
0 0 0
0 0 0
0 0 0
0 0 0
0 0 0
0 0 0
0 0 0
0 0 0
0 0 0
0 0 0
0 0 0
0 0 0
0 0 0
0 0 0
0 0 0
0 0 0
0 0 0
0 0 0
0 0 0
0 0 0
0 0 0
0 0 0
0 0 0
0 0 0
0 0 0
0 0 0
0 0 0
0 0 0
0 0 0
0 0 0
0 0 0
0 0 0
0 0 0
0 0 0
0 0 0
0 0 0
0 0 0
0 0 0
0 0 0
0 0 0
0 0 0
0 0 0
0 0 0
0 0 0
0 0 0
0 0 0
0 0 0
0 0 0
0 0 0
0 0 0
0 0 0
0 0 0
0 0 0
0 0 0
0 0 0
0 0 0
0 0 0
0 0 0
0 0 0
0 0 0
0 0 0
0 0 0
0 0 0
0 0 0
0 0 0
0 0 0
0 0 0
0 0 0
0 0 0
0 0 0
0 0 0
0 0 0
0 0 0
0 0 0
0 0 0
0 0 0
0 0 0
0 0 0
0 0 0
0 0 0
0 0 0
0 0 0
0 0 0
0 0 0
0 0 0
0 0 0
0 0 0
0 0 0
0 0 0
0 0 0
0 0 0
0 0 0
0 0 0
0 0 0
0 0 0
0 0 0
0 0 0
0 0 0
0 0 0
0 0 0
0 0 0
0 0 0
0 0 0
0 0 0
0 0 0
0 0 0
0 0 0
0 0 0
0 0 0
0 0 0
0 0 0
0 0 0
0 0 0
0 0 0
0 0 0
0 0 0
0 0 0
0 0 0
0 0 0
0 0 0
0 0 0
0 0 0
0 0 0
0 0 0
0 0 0
0 0 0
0 0 0
0 0 0
0 0 0
0 0 0
0 0 0
0 0 0
0 0 0
0 0 0
0 0 0
0 0 0
0 0 0
0 0 0
0 0 0
0 0 0
0 0 0
0 0 0
0 0 0
0 0 0
0 0 0
0 0 0
0 0 0
0 0 0
0 0 0
0 0 0
0 0 0
0 0 0
0 0 0
0 0 0
0 0 0
0 0 0
0 0 0
0 0 0
0 0 0
0 0 0
0 0 0
0 0 0
0 0 0
0 0 0
0 0 0
0 0 0
0 0 0
0 0 0
0 0 0
0 0 0
0 0 0
0 0 0
0 0 0
0 0 0
0 0 0
0 0 0
0 0 0
0 0 0
0 0 0
0 0 0
0 0 0
0 0 0
0 0 0
0 0 0
0 0 0
0 0 0
0 0 0
0 0 0
0 0 0
0 0 0
0 0 0
0 0 0
0 0 0
0 0 0
0 0 0
0 0 0
0 0 0
0 0 0
0 0 0
0 0 0
0 0 0
0 0 0
0 0 0
0 0 0
0 0 0
0 0 0
0 0 0
0 0 0
0 0 0
0 0 0
0 0 0
0 0 0
0 0 0
0 0 0
0 0 0
0 0 0
0 0 0
0 0 0
0 0 0
0 0 0
0 0 0
0 0 0
0 0 0
0 0 0
0 0 0
0 0 0
0 0 0
0 0 0
0 0 0
0 0 0
0 0 0
0 0 0
0 0 0
0 0 0
0 0 0
0 0 0
0 0 0
0 0 0
0 0 0
0 0 0
0 0 0
0 0 0
0 0 0
0 0 0
0 0 0
0 0 0
0 0 0
0 0 0
0 0 0
0 0 0
0 0 0
0 0 0
0 0 0
0 0 0
0 0 0
0 0 0
0 0 0
0 0 0
0 0 0
0 0 0
0 0 0
0 0 0
0 0 0
0 0 0
0 0 0
0 0 0
0 0 0
0 0 0
0 0 0
0 0 0
0 0 0
0 0 0
0 0 0
0 0 0
0 0 0
0 0 0
0 0 0
0 0 0
0 0 0
0 0 0
0 0 0
0 0 0
0 0 0
0 0 0
0 0 0
0 0 0
0 0 0
0 0 0
0 0 0
0 0 0
0 0 0
0 0 0
0 0 0
0 0 0
0 0 0
0 0 0
0 0 0
0 0 0
0 0 0
0 0 0
0 0 0
0 0 0
0 0 0
0 0 0
0 0 0
0 0 0
0 0 0
0 0 0
0 0 0
0 0 0
0 0 0
0 0 0
0 0 0
0 0 0
0 0 0
0 0 0
0 0 0
0 0 0
0 0 0
0 0 0
0 0 0
0 0 0
0 0 0
0 0 0
0 0 0
0 0 0
0 0 0
0 0 0
0 0 0
0 0 0
0 0 0
0 0 0
0 0 0
0 0 0
0 0 0
0 0 0
0 0 0
0 0 0
0 0 0
0 0 0
0 0 0
0 0 0
0 0 0
0 0 0
0 0 0
0 0 0
0 0 0
0 0 0
0 0 0
0 0 0
0 0 0
0 0 0
0 0 0
0 0 0
0 0 0
0 0 0
0 0 0
0 0 0
0 0 0
0 0 0
0 0 0
0 0 0
0 0 0
0 0 0
0 0 0
0 0 0
0 0 0
0 0 0
0 0 0
0 0 0
0 0 0
0 0 0
0 0 0
0 0 0
0 0 0
0 0 0
0 0 0
0 0 0
0 0 0
0 0 0
0 0 0
0 0 0
0 0 0
0 0 0
0 0 0
0 0 0
0 0 0
0 0 0
0 0 0
0 0 0
0 0 0
0 0 0
0 0 0
0 0 0
0 0 0
0 0 0
0 0 0
0 0 0
0 0 0
0 0 0
0 0 0
0 0 0
0 0 0
0 0 0
0 0 0
0 0 0
0 0 0
0 0 0
0 0 0
0 0 0
0 0 0
0 0 0
0 0 0
0 0 0
0 0 0
0 0 0
0 0 0
0 0 0
0 0 0
0 0 0
0 0 0
0 0 0
0 0 0
0 0 0
0 0 0
0 0 0
0 0 0
0 0 0
0 0 0
0 0 0
0 0 0
0 0 0
0 0 0
0 0 0
0 0 0
0 0 0
0 0 0
0 0 0
0 0 0
0 0 0
0 0 0
0 0 0
0 0 0
0 0 0
0 0 0
0 0 0
0 0 0
0 0 0
0 0 0
0 0 0
0 0 0
0 0 0
0 0 0
0 0 0
0 0 0
0 0 0
0 0 0
0 0 0
0 0 0
0 0 0
0 0 0
0 0 0
0 0 0
0 0 0
0 0 0
0 0 0
0 0 0
0 0 0
0 0 0
0 0 0
0 0 0
0 0 0
0 0 0
0 0 0
0 0 0
0 0 0
0 0 0
0 0 0
0 0 0
0 0 0
0 0 0
0 0 0
0 0 0
0 0 0
0 0 0
0 0 0
0 0 0
0 0 0
0 0 0
0 0 0
0 0 0
0 0 0
0 0 0
0 0 0
0 0 0
0 0 0
0 0 0
0 0 0
0 0 0
0 0 0
0 0 0
0 0 0
0 0 0
0 0 0
0 0 0
0 0 0
0 0 0
0 0 0
0 0 0
0 0 0
0 0 0
0 0 0
0 0 0
0 0 0
0 0 0
0 0 0
0 0 0
0 0 0
0 0 0
0 0 0
0 0 0
0 0 0
0 0 0
0 0 0
0 0 0
0 0 0
0 0 0
0 0 0
0 0 0
0 0 0
0 0 0
0 0 0
0 0 0
0 0 0
0 0 0
0 0 0
0 0 0
0 0 0
0 0 0
0 0 0
0 0 0
0 0 0
0 0 0
0 0 0
0 0 0
0 0 0
0 0 0
0 0 0
0 0 0
0 0 0
0 0 0
0 0 0
0 0 0
0 0 0
0 0 0
0 0 0
0 0 0
0 0 0
0 0 0
0 0 0
0 0 0
0 0 0
0 0 0
0 0 0
0 0 0
0 0 0
0 0 0
0 0 0
0 0 0
0 0 0
0 0 0
0 0 0
0 0 0
0 0 0
0 0 0
0 0 0
0 0 0
0 0 0
0 0 0
0 0 0
0 0 0
0 0 0
0 0 0
0 0 0
0 0 0
0 0 0
0 0 0
0 0 0
0 0 0
0 0 0
0 0 0
0 0 0
0 0 0
0 0 0
0 0 0
0 0 0
0 0 0
0 0 0
0 0 0
0 0 0
0 0 0
0 0 0
0 0 0
0 0 0
0 0 0
0 0 0
0 0 0
0 0 0
0 0 0
0 0 0
0 0 0
0 0 0
0 0 0
0 0 0
0 0 0
0 0 0
0 0 0
0 0 0
0 0 0
0 0 0
0 0 0
0 0 0
0 0 0
0 0 0
0 0 0
0 0 0
0 0 0
0 0 0
0 0 0
0 0 0
0 0 0
0 0 0
0 0 0
0 0 0
0 0 0
0 0 0
0 0 0
0 0 0
0 0 0
0 0 0
0 0 0
0 0 0
0 0 0
0 0 0
0 0 0
0 0 0
0 0 0
0 0 0
0 0 0
0 0 0
0 0 0
0 0 0
0 0 0
0 0 0
0 0 0
0 0 0
0 0 0
0 0 0
0 0 0
0 0 0
0 0 0
0 0 0
0 0 0
0 0 0
0 0 0
0 0 0
0 0 0
0 0 0
0 0 0
0 0 0
0 0 0
0 0 0
0 0 0
0 0 0
0 0 0
0 0 0
0 0 0
0 0 0
0 0 0
0 0 0
0 0 0
0 0 0
0 0 0
0 0 0
0 0 0
0 0 0
0 0 0
0 0 0
0 0 0
0 0 0
0 0 0
0 0 0
0 0 0
0 0 0
0 0 0
0 0 0
0 0 0
0 0 0
0 0 0
0 0 0
0 0 0
0 0 0
0 0 0
0 0 0
0 0 0
0 0 0
0 0 0
0 0 0
0 0 0
0 0 0
0 0 0
0 0 0
0 0 0
0 0 0
0 0 0
0 0 0
0 0 0
0 0 0
0 0 0
0 0 0
0 0 0
0 0 0
0 0 0
0 0 0
0 0 0
0 0 0
0 0 0
0 0 0
0 0 0
0 0 0
0 0 0
0 0 0
0 0 0
0 0 0
0 0 0
0 0 0
0 0 0
0 0 0
0 0 0
0 0 0
0 0 0
0 0 0
0 0 0
0 0 0
0 0 0
0 0 0
0 0 0
0 0 0
0 0 0
0 0 0
0 0 0
0 0 0
0 0 0
0 0 0
0 0 0
0 0 0
0 0 0
0 0 0
0 0 0
0 0 0
0 0 0
0 0 0
0 0 0
0 0 0
0 0 0
0 0 0
0 0 0
0 0 0
0 0 0
0 0 0
0 0 0
0 0 0
0 0 0
0 0 0
0 0 0
0 0 0
0 0 0
0 0 0
0 0 0
0 0 0
0 0 0
0 0 0
0 0 0
0 0 0
0 0 0
0 0 0
0 0 0
0 0 0
0 0 0
0 0 0
0 0 0
0 0 0
0 0 0
0 0 0
0 0 0
0 0 0
0 0 0
0 0 0
0 0 0
0 0 0
0 0 0
0 0 0
0 0 0
0 0 0
0 0 0
0 0 0
0 0 0
0 0 0
0 0 0
0 0 0
0 0 0
0 0 0
0 0 0
0 0 0
0 0 0
0 0 0
0 0 0
0 0 0
0 0 0
0 0 0
0 0 0
0 0 0
0 0 0
0 0 0
0 0 0
0 0 0
0 0 0
0 0 0
0 0 0
0 0 0
0 0 0
0 0 0
0 0 0
0 0 0
0 0 0
0 0 0
0 0 0
0 0 0
0 0 0
0 0 0
0 0 0
0 0 0
0 0 0
0 0 0
0 0 0
0 0 0
0 0 0
0 0 0
0 0 0
0 0 0
0 0 0
0 0 0
0 0 0
0 0 0
0 0 0
0 0 0
0 0 0
0 0 0
0 0 0
0 0 0
0 0 0
0 0 0
0 0 0
0 0 0
0 0 0
0 0 0
0 0 0
0 0 0
0 0 0
0 0 0
0 0 0
0 0 0
0 0 0
0 0 0
0 0 0
0 0 0
0 0 0
0 0 0
0 0 0
0 0 0
0 0 0
0 0 0
0 0 0
0 0 0
0 0 0
0 0 0
0 0 0
0 0 0
0 0 0
0 0 0
0 0 0
0 0 0
0 0 0
0 0 0
0 0 0
0 0 0
0 0 0
0 0 0
0 0 0
0 0 0
0 0 0
0 0 0
0 0 0
0 0 0
0 0 0
0 0 0
0 0 0
0 0 0
0 0 0
0 0 0
0 0 0
0 0 0
0 0 0
0 0 0
0 0 0
0 0 0
0 0 0
0 0 0
0 0 0
0 0 0
0 0 0
0 0 0
0 0 0
0 0 0
0 0 0
0 0 0
0 0 0
0 0 0
0 0 0
0 0 0
0 0 0
0 0 0
0 0 0
0 0 0
0 0 0
0 0 0
0 0 0
0 0 0
0 0 0
0 0 0
0 0 0
0 0 0
0 0 0
0 0 0
0 0 0
0 0 0
0 0 0
0 0 0
0 0 0
0 0 0
0 0 0
0 0 0
0 0 0
0 0 0
0 0 0
0 0 0
0 0 0
0 0 0
0 0 0
0 0 0
0 0 0
0 0 0
0 0 0
0 0 0
0 0 0
0 0 0
0 0 0
0 0 0
0 0 0
0 0 0
0 0 0
0 0 0
0 0 0
0 0 0
0 0 0
0 0 0
0 0 0
0 0 0
0 0 0
0 0 0
0 0 0
0 0 0
0 0 0
0 0 0
0 0 0
0 0 0
0 0 0
0 0 0
0 0 0
0 0 0
0 0 0
0 0 0
0 0 0
0 0 0
0 0 0
0 0 0
0 0 0
0 0 0
0 0 0
0 0 0
0 0 0
0 0 0
0 0 0
0 0 0
0 0 0
0 0 0
0 0 0
0 0 0
0 0 0
0 0 0
0 0 0
0 0 0
0 0 0
0 0 0
0 0 0
0 0 0
0 0 0
0 0 0
0 0 0
0 0 0
0 0 0
0 0 0
0 0 0
0 0 0
0 0 0
0 0 0
0 0 0
0 0 0
0 0 0
0 0 0
0 0 0
0 0 0
0 0 0
0 0 0
0 0 0
0 0 0
0 0 0
0 0 0
0 0 0
0 0 0
0 0 0
0 0 0
0 0 0
0 0 0
0 0 0
0 0 0
0 0 0
0 0 0
0 0 0
0 0 0
0 0 0
0 0 0
0 0 0
0 0 0
0 0 0
0 0 0
0 0 0
0 0 0
0 0 0
0 0 0
0 0 0
0 0 0
0 0 0
0 0 0
0 0 0
0 0 0
0 0 0
0 0 0
0 0 0
0 0 0
0 0 0
0 0 0
0 0 0
0 0 0
0 0 0
0 0 0
0 0 0
0 0 0
0 0 0
0 0 0
0 0 0
0 0 0
0 0 0
0 0 0
0 0 0
0 0 0
0 0 0
0 0 0
0 0 0
0 0 0
0 0 0
0 0 0
0 0 0
0 0 0
0 0 0
0 0 0
0 0 0
0 0 0
0 0 0
0 0 0
0 0 0
0 0 0
0 0 0
0 0 0
0 0 0
0 0 0
0 0 0
0 0 0
0 0 0
0 0 0
0 0 0
0 0 0
0 0 0
0 0 0
0 0 0
0 0 0
0 0 0
0 0 0
0 0 0
0 0 0
0 0 0
0 0 0
0 0 0
0 0 0
0 0 0
0 0 0
0 0 0
0 0 0
0 0 0
0 0 0
0 0 0
0 0 0
0 0 0
0 0 0
0 0 0
0 0 0
0 0 0
0 0 0
0 0 0
0 0 0
0 0 0
0 0 0
0 0 0
0 0 0
0 0 0
0 0 0
0 0 0
0 0 0
0 0 0
0 0 0
0 0 0
0 0 0

CELL_DATA 1000
SCALARS ELEMENT_ID int 1
LOOKUP_TABLE default
109
127
129
131
133
135
151
152
153
154
155
156
157
158
159
160
161
162
163
164
165
166
167
168
169
170
171
172
173
174
175
176
177
178
179
180
181
182
183
184
185
186
187
188
189
190
191
192
193
194
195
196
197
198
199
200
227
229
231
233
235
251
252
253
254
255
256
257
258
259
260
261
262
263
264
265
266
267
268
269
270
271
272
273
274
275
276
277
278
279
280
281
282
283
284
285
286
287
288
289
290
291
292
293
294
295
296
297
298
299
300
327
329
331
333
335
351
352
353
354
355
356
357
358
359
360
361
362
363
364
365
366
367
368
369
370
371
372
373
374
375
376
377
378
379
380
381
382
383
384
385
386
387
388
389
390
391
392
393
394
395
396
397
398
399
400
451
452
453
454
455
456
457
458
459
460
461
462
463
464
465
466
467
468
469
470
471
472
473
474
475
476
477
478
480
481
482
483
484
485
486
487
488
489
490
491
492
493
494
495
496
497
498
499
500
551
552
553
554
555
556
557
558
559
560
565
566
569
570
571
572
573
574
575
651
653
655
656
657
658
659
660
665
669
674
675
479
561
562
563
564
567
568
576
577
578
579
580
581
582
583
584
585
588
589
590
591
592
595
596
597
598
599
600
652
654
661
662
663
664
666
667
668
670
671
672
673
676
677
678
679
680
681
682
683
684
685
688
689
690
691
692
695
696
697
698
699
700
751
752
753
754
755
756
757
758
759
760
761
762
763
764
765
766
767
768
769
770
771
772
773
774
775
776
777
778
779
780
781
782
783
784
785
788
789
790
791
792
795
796
797
798
799
800
851
852
853
854
855
856
857
858
859
860
861
862
863
864
865
866
867
868
869
870
871
872
873
874
875
876
877
878
879
880
881
882
883
884
885
888
889
890
891
892
895
896
897
898
899
900
951
952
953
954
955
956
957
958
959
960
961
962
963
964
965
966
967
968
969
970
971
972
973
974
975
976
977
978
979
980
981
982
983
984
985
988
989
990
991
992
995
996
997
998
999
1000
1051
1052
1053
1054
1055
1056
1057
1058
1059
1060
1061
1062
1063
1064
1065
1066
1067
1068
1069
1070
1071
1072
1073
1074
1075
1076
1077
1078
1079
1080
1081
1082
1083
1084
1085
1088
1089
1090
1091
1092
1095
1096
1097
1098
1099
1100
101
102
103
104
105
106
107
108
110
111
112
113
114
115
116
117
118
119
120
121
122
123
124
125
132
134
142
143
145
146
148
150
201
202
203
204
205
206
207
208
209
210
211
212
213
214
215
216
217
218
219
220
221
222
223
224
225
232
234
242
243
245
246
248
250
301
302
303
304
305
306
307
308
309
310
311
312
313
314
315
316
317
318
319
320
321
322
323
324
325
334
342
345
346
401
402
403
404
405
406
407
408
409
410
411
412
413
414
415
416
417
418
419
420
421
422
423
424
425
434
435
442
445
446
501
502
503
504
505
506
507
508
509
510
511
512
513
514
515
516
517
518
519
520
521
522
523
524
525
534
535
542
545
546
601
603
605
606
607
608
609
610
611
613
615
617
618
619
620
621
622
623
624
625
701
703
705
706
707
708
709
710
711
713
715
717
718
719
720
721
722
723
724
725
801
803
805
806
807
808
809
810
811
813
815
817
818
819
820
821
822
823
824
825
901
903
905
906
907
908
909
910
911
913
915
917
918
919
920
921
922
923
924
925
1001
1003
1005
1006
1007
1008
1009
1010
1011
1013
1015
1017
1018
1019
1020
1021
1022
1023
1024
1025
126
128
130
136
137
138
139
140
141
144
147
149
226
228
230
236
237
238
239
240
241
244
247
249
326
328
330
332
336
337
338
339
340
341
343
344
347
348
349
350
426
427
428
429
430
431
432
433
436
437
438
439
440
441
443
444
447
448
449
450
526
527
528
529
530
531
532
533
536
537
538
539
540
541
543
544
547
548
549
550
586
587
593
594
602
604
612
614
616
626
627
628
629
630
631
632
633
634
635
636
637
638
639
640
641
642
643
644
645
646
647
648
649
650
686
687
693
694
702
704
712
714
716
726
727
728
729
730
731
732
733
734
735
736
737
738
739
740
741
742
743
744
745
746
747
748
749
750
786
787
793
794
802
804
812
814
816
826
827
828
829
830
831
832
833
834
835
836
837
838
839
840
841
842
843
844
845
846
847
848
849
850
886
887
893
894
902
904
912
914
916
926
927
928
929
930
931
932
933
934
935
936
937
938
939
940
941
942
943
944
945
946
947
948
949
950
986
987
993
994
1002
1004
1012
1014
1016
1026
1027
1028
1029
1030
1031
1032
1033
1034
1035
1036
1037
1038
1039
1040
1041
1042
1043
1044
1045
1046
1047
1048
1049
1050
1086
1087
1093
1094

SCALARS PART_ID int 1
LOOKUP_TABLE default
1
1
1
1
1
1
1
1
1
1
1
1
1
1
1
1
1
1
1
1
1
1
1
1
1
1
1
1
1
1
1
1
1
1
1
1
1
1
1
1
1
1
1
1
1
1
1
1
1
1
1
1
1
1
1
1
1
1
1
1
1
1
1
1
1
1
1
1
1
1
1
1
1
1
1
1
1
1
1
1
1
1
1
1
1
1
1
1
1
1
1
1
1
1
1
1
1
1
1
1
1
1
1
1
1
1
1
1
1
1
1
1
1
1
1
1
1
1
1
1
1
1
1
1
1
1
1
1
1
1
1
1
1
1
1
1
1
1
1
1
1
1
1
1
1
1
1
1
1
1
1
1
1
1
1
1
1
1
1
1
1
1
1
1
1
1
1
1
1
1
1
1
1
1
1
1
1
1
1
1
1
1
1
1
1
1
1
1
1
1
1
1
1
1
1
1
1
1
1
1
1
1
1
1
1
1
1
1
1
1
1
1
1
1
1
1
1
1
1
1
1
1
1
1
1
1
1
1
1
1
1
1
1
1
1
1
1
1
1
1
1
1
1
1
1
1
1
1
1
1
1
1
1
1
1
1
1
1
1
1
1
1
1
1
1
1
1
1
1
1
1
1
1
1
1
1
1
1
1
1
1
1
1
1
1
1
1
1
1
1
1
1
1
1
1
1
1
1
1
1
1
1
1
1
1
1
1
1
1
1
1
1
1
1
1
1
1
1
1
1
1
1
1
1
1
1
1
1
1
1
1
1
1
1
1
1
1
1
1
1
1
1
1
1
1
1
1
1
1
1
1
1
1
1
1
1
1
1
1
1
1
1
1
1
1
1
1
1
1
1
1
1
1
1
1
1
1
1
1
1
1
1
1
1
1
1
1
1
1
1
1
1
1
1
1
1
1
1
1
1
1
1
1
1
1
1
1
1
1
1
1
1
1
1
1
1
1
1
1
1
1
1
1
1
1
1
1
1
1
1
1
1
1
1
1
1
1
1
1
1
1
1
1
1
1
1
1
1
1
1
1
1
1
1
1
1
1
1
1
1
1
1
1
1
1
1
1
1
1
1
1
1
1
1
1
1
1
1
1
1
1
1
1
1
1
1
1
1
1
1
1
1
1
1
1
1
1
1
1
1
1
1
1
1
1
1
1
1
1
1
1
1
1
1
1
1
1
1
1
1
1
1
1
1
1
1
1
1
1
1
1
1
1
1
1
1
1
1
1
1
1
1
1
1
1
1
1
1
1
1
1
1
1
1
1
1
1
1
1
1
1
1
1
1
1
1
1
1
1
1
1
1
1
1
1
1
1
1
1
1
1
1
1
1
1
1
1
1
1
1
1
1
1
1
1
1
1
1
1
1
1
1
1
1
1
1
1
1
1
1
1
1
1
1
1
1
1
1
1
1
1
1
1
1
1
1
1
1
1
1
1
1
1
1
1
1
1
1
1
1
1
1
1
1
1
1
1
1
1
1
1
1
1
1
1
1
1
1
1
1
1
1
1
1
1
1
1
1
1
1
1
1
1
1
1
1
1
1
1
1
1
1
1
1
1
1
1
1
1
1
1
1
1
1
1
1
1
1
1
1
1
1
1
1
1
1
1
1
1
1
1
1
1
1
1
1
1
1
1
1
1
1
1
1
1
1
1
1
1
1
1
1
1
1
1
1
1
1
1
1
1
1
1
1
1
1
1
1
1
1
1
1
1
1
1
1
1
1
1
1
1
1
1
1
1
1
1
1
1
1
1
1
1
1
1
1
1
1
1
1
1
1
1
1
1
1
1
1
1
1
1
1
1
1
1
1
1
1
1
1
1
1
1
1
1
1
1
1
1
1
1
1
1
1
1
1
1
1
1
1
1
1
1
1
1
1
1
1
1
1
1
1
1
1
1
1
1
1
1
1
1
1
1
1
1
1
1
1
1
1
1
1
1
1
1
1
1
1
1
1
1
1
1
1
1
1
1
1
1
1
1
1
1
1
1
1
1
1
1
1
1
1
1
1
1
1
1
1
1
1
1
1
1
1
1
1
1
1
1
1
1
1
1
1
1
1
1
1
1
1
1
1
1
1
1
1
1
1
1
1
1
1
1
1
1
1
1
1
1
1
1
1
1
1
1
1
1
1
1
1
1
1
1
1
1
1
1
1
1
1
1
1
1
1
1
1
1
1
1
1
1
1
1
1
1
1
1
1
1
1
1
1
1
1
1
1
1
1
1
1
1
1
1
1
1
1
1
1
1
1
1
1
1
1
1
1
1
1
1
1

SCALARS EROSION_STATUS int 1
LOOKUP_TABLE default
1
1
1
1
1
1
1
1
1
1
1
1
1
1
1
1
1
1
1
1
1
1
1
1
1
1
1
1
1
1
1
1
1
1
1
1
1
1
1
1
1
1
1
1
1
1
1
1
1
1
1
1
1
1
1
1
1
1
1
1
1
1