# vtk DataFile Version 3.0
vtk output
ASCII
DATASET UNSTRUCTURED_GRID
FIELD FieldData 2
TIME 1 1 double
0.600372
CYCLE 1 1 int
0
POINTS 1341 float
21.213 21.213 -0.00176799
19.4792 22.8066 -0.0261412
20.1111 20.111 -0.0426902
22.8074 19.4782 -0.0330055
21.213 21.213 2.69823
19.476 22.8029 2.31078
20.1083 20.1084 2.31529
22.8042 19.4751 2.31316
21.2169 17.8978 -0.045241
24.2585 17.6238 -0.0315048
21.2147 17.8955 2.31376
24.2551 17.6212 2.31181
22.3899 15.7775 -0.0481204
25.5617 15.6636 -0.0343864
22.3877 15.7755 2.31301
25.5582 15.6612 2.31138
23.4221 13.5632 -0.0497486
26.7086 13.6082 -0.0356929
23.4199 13.5616 2.31151
26.7052 13.6064 2.31053
24.5081 11.4658 -0.0515438
27.6928 11.4699 -0.0366463
24.5058 11.4646 2.31067
27.6892 11.4685 2.30997
25.2423 9.09962 -0.0528903
28.5088 9.26258 -0.0372852
25.2399 9.09871 2.30991
28.5052 9.26153 2.30977
26.0203 6.87501 -0.052723
29.151 6.99817 -0.0366411
26.0178 6.87494 2.30962
29.1472 6.99784 2.3096
26.6385 4.60909 -0.0537244
29.616 4.69005 -0.0365878
26.6358 4.60874 2.31026
29.6121 4.68967 2.3103
26.8945 2.11075 -0.0527925
29.9003 2.35235 -0.0364984
26.8918 2.11254 2.31338
29.8962 2.35357 2.31337
26.7876 0 -0.0341839
30.0029 0 -0.0220373
26.7849 0 2.31172
29.9993 0 2.31225
17.625 24.2586 -0.0315286
17.8978 21.217 -0.0452441
17.622 24.255 2.31214
17.8954 21.2146 2.31408
18.7586 18.7587 -0.042358
18.7568 18.7567 2.31132
19.8008 16.4936 -0.0442939
19.7988 16.4917 2.31053
20.7187 14.1342 -0.0461404
20.717 14.1327 2.30905
21.7059 11.892 -0.0488936
21.704 11.8908 2.30799
22.3588 9.37956 -0.0510423
22.3571 9.37874 2.30701
23.072 7.01109 -0.0514576
23.0701 7.01103 2.30632
23.644 4.59891 -0.053626
23.6422 4.59871 2.30686
23.872 1.95577 -0.0518873
23.8702 1.95768 2.31031
24.0542 0 -0.0319249
24.0522 0 2.30862
15.6636 25.5617 -0.0343883
15.7775 22.39 -0.0481219
15.6613 25.5582 2.31139
15.7755 22.3877 2.31305
16.4936 19.8008 -0.0442919
16.4916 19.7988 2.31057
17.4057 17.4057 -0.0456176
17.4037 17.4036 2.3103
18.2087 14.9155 -0.0472741
18.2068 14.9137 2.3088
19.0977 12.5431 -0.0498492
19.0959 12.5417 2.30763
19.6688 9.90079 -0.0518776
19.6671 9.89978 2.30639
20.3178 7.40208 -0.0522465
20.3161 7.40197 2.30557
20.8438 4.86007 -0.0543807
20.8422 4.85977 2.30596
21.0428 2.08663 -0.0527102
21.0412 2.08867 2.30931
21.2148 0 -0.032725
21.2133 0 2.30785
13.6082 26.7087 -0.0356906
13.5633 23.4221 -0.0497468
13.6063 26.7052 2.31056
13.5616 23.4198 2.31153
14.1342 20.7188 -0.0461361
14.1327 20.717 2.30907
14.9165 18.2088 -0.0472708
14.9147 18.2068 2.30881
15.6044 15.6044 -0.0493933
15.6028 15.6028 2.30746
16.3946 13.1172 -0.052287
16.3929 13.1159 2.30635
16.8844 10.3597 -0.0540556
16.883 10.3588 2.30509
17.4696 7.74624 -0.0543284
17.4682 7.74608 2.30433
17.9485 5.08894 -0.0562586
17.9472 5.0888 2.30465
18.1196 2.20077 -0.0546264
18.1183 2.20267 2.3081
18.2805 0 -0.0345836
18.2792 0 2.30707
11.4709 27.6928 -0.0366464
11.4658 24.5081 -0.0515451
11.4695 27.6892 2.30998
11.4647 24.5058 2.31068
11.892 21.7059 -0.0488921
11.8908 21.704 2.308
12.5441 19.0978 -0.0498493
12.5427 19.0959 2.30764
13.1172 16.3946 -0.0522872
13.1159 16.3929 2.30636
13.6091 13.6091 -0.0548007
13.608 13.6079 2.30498
14.0172 10.7539 -0.0558346
14.0161 10.753 2.30378
14.5381 8.04115 -0.0560345
14.5372 8.04109 2.30312
14.9702 5.2861 -0.0577986
14.9693 5.28588 2.30338
15.1131 2.29971 -0.0561996
15.1123 2.30164 2.30695
15.2642 0 -0.0361511
15.2633 0 2.30618
9.26259 28.5088 -0.0372857
9.09963 25.2423 -0.0528921
9.26151 28.5052 2.30978
9.09871 25.2399 2.30992
9.37956 22.3579 -0.0510417
9.37873 22.3561 2.30701
9.90179 19.6688 -0.0518801
9.90078 19.6671 2.30639
10.3597 16.8835 -0.0540568
10.3588 16.882 2.3051
10.7539 14.0172 -0.0558311
10.753 14.0161 2.30379
11.0797 11.0798 -0.0567727
11.079 11.079 2.3027
11.537 8.28633 -0.0573996
11.5361 8.28621 2.30208
11.9228 5.44894 -0.0590317
11.9221 5.44889 2.30227
12.037 2.38083 -0.0574599
12.0362 2.38267 2.30592
12.1778 0 -0.0374354
12.1772 0 2.30541
6.99816 29.151 -0.0366363
6.876 26.0203 -0.0527214
6.99785 29.1472 2.30961
6.87594 26.0178 2.30963
7.01109 23.072 -0.051458
7.01102 23.0702 2.30633
7.40208 20.3178 -0.0522481
7.40197 20.3161 2.30557
7.74624 17.4696 -0.0543293
7.74608 17.4682 2.30434
8.04113 14.5381 -0.0560328
8.04108 14.5372 2.30312
8.28633 11.537 -0.0573982
8.2862 11.5361 2.30208
8.47811 8.47816 -0.0584288
8.4782 8.47819 2.3014
8.81842 5.57716 -0.0599643
8.81831 5.57698 2.30156
8.90319 2.4457 -0.058412
8.90328 2.44763 2.30535
9.03439 0 -0.0384227
9.03436 0 2.30499
4.69105 29.616 -0.0365907
4.6091 26.6385 -0.0537262
4.69066 29.6121 2.31031
4.60873 26.6358 2.31027
4.59891 23.644 -0.0536251
4.59871 23.6422 2.30686
4.86007 20.8438 -0.0543782
4.85977 20.8422 2.30596
5.08894 17.9485 -0.056256
5.08879 17.9472 2.30465
5.28609 14.9702 -0.0577963
5.28588 14.9693 2.30339
5.44892 11.9228 -0.0590292
5.44889 11.9221 2.30227
5.57716 8.81842 -0.0599621
5.57698 8.81831 2.30156
5.66979 5.66983 -0.060988
5.66999 5.66998 2.30169
5.72722 2.49197 -0.0590581
5.72712 2.49369 2.30571
5.84782 0 -0.0391064
5.84806 0 2.30557
2.35235 29.9003 -0.0364997
2.11075 26.8945 -0.0527926
2.35357 29.8962 2.31338
2.11254 26.8918 2.31339
1.95677 23.872 -0.0518866
1.95868 23.8702 2.31032
2.08663 21.0428 -0.0527098
2.08867 21.0412 2.30932
2.20177 18.1196 -0.0546261
2.20367 18.1183 2.30811
2.2997 15.1131 -0.0561993
2.30164 15.1123 2.30695
2.38184 12.037 -0.0574597
2.38367 12.0362 2.30592
2.44569 8.90321 -0.0584115
2.44762 8.90328 2.30536
2.49197 5.72721 -0.0590573
2.49369 5.72713 2.30572
2.52051 2.52053 -0.0569253
2.52259 2.52259 2.30948
2.63161 0 -0.0372945
2.63267 0 2.30933
0 30.0029 -0.0220374
0 26.7876 -0.0341866
0 29.9993 2.31226
0 26.7849 2.31173
0 24.0542 -0.0319304
0 24.0522 2.30862
0 21.2149 -0.0327301
0 21.2133 2.30786
0 18.2805 -0.0345884
0 18.2793 2.30708
0 15.2642 -0.0361558
0 15.2633 2.30618
0 12.1778 -0.0374398
0 12.1772 2.30542
0 9.03439 -0.038425
0 9.03436 2.30499
0 5.84784 -0.0391061
0 5.84806 2.30557
0 2.63161 -0.037294
0 2.63268 2.30933
0 0 -0.0212765
0 0 2.3099
21.213 21.213 5.39823
19.4781 22.8053 4.68439
20.1098 20.1097 4.68316
22.8059 19.477 4.68376
21.2155 17.8966 4.68367
24.2571 17.6229 4.68386
22.3886 15.7766 4.68318
25.5601 15.6629 4.68344
23.4206 13.5625 4.68291
26.7071 13.6077 4.68315
24.5066 11.4654 4.68261
27.6912 11.4696 4.68283
25.2407 9.09938 4.68239
28.5072 9.26253 4.68271
26.0187 6.87512 4.68265
29.1493 6.99824 4.68297
26.6367 4.60934 4.6832
29.6144 4.69039 4.68352
26.8927 2.11152 4.68295
29.8982 2.35252 4.68323
26.7857 0 4.68389
30.0012 0 4.68408
17.6241 24.2572 4.68371
17.8967 21.2156 4.68335
18.7574 18.7575 4.68401
19.7995 16.4925 4.68342
20.7174 14.1335 4.68286
21.7045 11.8914 4.68239
22.3575 9.37938 4.68191
23.0705 7.0111 4.68208
23.6425 4.59936 4.68264
23.8705 1.9564 4.68221
24.0525 0 4.68323
15.6628 25.5601 4.68347
15.7766 22.3886 4.68322
16.4925 19.7995 4.68338
17.4046 17.4046 4.68246
18.2075 14.9145 4.68187
19.0966 12.5425 4.68128
19.6675 9.90042 4.68071
20.3166 7.40217 4.68072
20.8425 4.86036 4.68123
21.0415 2.08742 4.68089
21.2135 0 4.68189
13.6078 26.7071 4.68317
13.5625 23.4206 4.68292
14.1335 20.7175 4.68288
14.9155 18.2076 4.68187
15.6035 15.6035 4.6812
16.3935 13.1165 4.68056
16.8835 10.3594 4.6799
17.4685 7.74616 4.67981
17.9475 5.08937 4.6803
18.1185 2.20146 4.68002
18.2795 0 4.68089
11.4706 27.6912 4.68284
11.4654 24.5066 4.68263
11.8914 21.7045 4.6824
12.5435 19.0966 4.68129
13.1165 16.3935 4.68056
13.6085 13.6085 4.67973
14.0164 10.7534 4.67904
14.5375 8.04122 4.67886
14.9694 5.28636 4.67939
15.1125 2.30051 4.6792
15.2634 0 4.68001
9.26254 28.5072 4.68272
9.09939 25.2407 4.68241
9.37938 22.3565 4.68192
9.90142 19.6676 4.68071
10.3594 16.8825 4.67991
10.7534 14.0164 4.67904
11.0795 11.0795 4.67836
11.5365 8.2862 4.67816
11.9225 5.44938 4.67872
12.0365 2.38152 4.6786
12.1775 0 4.67937
6.99823 29.1493 4.68298
6.87612 26.0187 4.68266
7.01109 23.0705 4.68209
7.40217 20.3166 4.68073
7.74615 17.4685 4.67981
8.04122 14.5375 4.67887
8.2862 11.5365 4.67816
8.47825 8.47826 4.67785
8.81823 5.57737 4.67845
8.90328 2.44657 4.6784
9.03425 0 4.67914
4.69139 29.6144 4.68353
4.60934 26.6367 4.68322
4.59936 23.6425 4.68265
4.86036 20.8425 4.68123
5.08936 17.9475 4.68031
5.28636 14.9695 4.6794
5.44938 11.9225 4.67873
5.57737 8.81823 4.67845
5.67039 5.6704 4.67908
5.72733 2.49255 4.6791
5.84839 0 4.67976
2.35252 29.8982 4.68324
2.11152 26.8927 4.68296
1.9574 23.8705 4.68222
2.08742 21.0415 4.6809
2.20246 18.1185 4.68003
2.30051 15.1125 4.6792
2.38252 12.0365 4.6786
2.44657 8.90328 4.6784
2.49255 5.72733 4.6791
2.52167 2.52167 4.6794
2.63161 0 4.68006
0 30.0012 4.68409
0 26.7857 4.6839
0 24.0525 4.68323
0 21.2135 4.6819
0 18.2795 4.68089
0 15.2634 4.68001
0 12.1775 4.67937
0 9.03425 4.67914
0 5.84839 4.67976
0 2.63162 4.68006
0 0 4.68067
21.213 21.213 8.09823
19.477 22.804 7.07771
20.1093 20.1094 7.0781
22.8053 19.4761 7.07804
21.2156 17.8964 7.07772
24.2562 17.622 7.07786
22.3887 15.7763 7.07776
25.5592 15.662 7.07792
23.4207 13.5623 7.07762
26.7062 13.607 7.07786
24.5067 11.4652 7.07763
27.6902 11.469 7.07792
25.2407 9.09911 7.07767
28.5062 9.26193 7.078
26.0187 6.87524 7.0777
29.1482 6.99807 7.07805
26.6367 4.60888 7.07766
29.6131 4.68982 7.07798
26.8927 2.11256 7.07797
29.8972 2.35354 7.0783
26.7857 0 7.07752
30.0003 0 7.07792
17.6229 24.2561 7.07794
17.8963 21.2156 7.07784
18.7577 18.7576 7.07727
19.7997 16.4925 7.0773
20.7178 14.1334 7.07715
21.7048 11.8913 7.07712
22.3578 9.37919 7.07713
23.0708 7.0113 7.07714
23.6429 4.5989 7.07708
23.8709 1.95768 7.07741
24.0529 0 7.07698
15.662 25.5592 7.07789
15.7763 22.3887 7.07771
16.4924 19.7997 7.07729
17.4044 17.4044 7.07732
18.2076 14.9144 7.07701
19.0966 12.5423 7.07687
19.6677 9.9002 7.07674
20.3167 7.4023 7.0767
20.8428 4.85993 7.07657
21.0418 2.08868 7.07686
21.2138 0 7.07644
13.607 26.7062 7.07787
13.5623 23.4207 7.07762
14.1334 20.7178 7.07714
14.9154 18.2076 7.07701
15.6035 15.6035 7.07658
16.3935 13.1164 7.07632
16.8836 10.3593 7.07609
17.4687 7.74636 7.076
17.9477 5.08899 7.07581
18.1187 2.20266 7.07607
18.2798 0 7.07571
[...]
POINT_DATA 1341
SCALARS NODE_ID int 1
LOOKUP_TABLE default
1
2
3
4
5
6
7
8
9
10
11
12
13
14
15
16
17
18
19
20
21
22
23
24
25
26
27
28
29
30
31
32
33
34
35
36
37
38
39
40
41
42
43
44
45
46
47
48
49
50
51
52
53
54
55
56
57
58
59
60
61
62
63
64
65
66
67
68
69
70
71
72
73
74
75
76
77
78
79
80
81
82
83
84
85
86
87
88
89
90
91
92
93
94
95
96
97
98
99
100
101
102
103
104
105
106
107
108
109
110
111
112
113
114
115
116
117
118
119
120
121
122
123
124
125
126
127
128
129
130
131
132
133
134
135
136
137
138
139
140
141
142
143
144
145
146
147
148
149
150
151
152
153
154
155
156
157
158
159
160
161
162
163
164
165
166
167
168
169
170
171
172
173
174
175
176
177
178
179
180
181
182
183
184
185
186
187
188
189
190
191
192
193
194
195
196
197
198
199
200
201
202
203
204
205
206
207
208
209
210
211
212
213
214
215
216
217
218
219
220
221
222
223
224
225
226
227
228
229
230
231
232
233
234
235
236
237
238
239
240
241
242
243
244
245
246
247
248
249
250
251
252
253
254
255
256
257
258
259
260
261
262
263
264
265
266
267
268
269
270
271
272
273
274
275
276
277
278
279
280
281
282
283
284
285
286
287
288
289
290
291
292
293
294
295
296
297
298
299
300
301
302
303
304
305
306
307
308
309
310
311
312
313
314
315
316
317
318
319
320
321
322
323
324
325
326
327
328
329
330
331
332
333
334
335
336
337
338
339
340
341
342
343
344
345
346
347
348
349
350
351
352
353
354
355
356
357
358
359
360
361
362
363
364
365
366
367
368
369
370
371
372
373
374
375
376
377
378
379
380
381
382
383
384
385
386
387
388
389
390
391
392
393
394
395
396
397
398
399
400
401
402
403
404
405
406
407
408
409
410
411
412
413
414
415
416
417
418
419
420
421
422
423
424
425
426
427
428
429
430
431
432
433
434
435
436
437
438
439
440
441
442
443
444
445
446
447
448
449
450
451
452
453
454
455
456
457
458
459
460
461
462
463
464
465
466
467
468
469
470
471
472
473
474
475
476
477
478
479
480
481
482
483
484
485
486
487
488
489
490
491
492
493
494
495
496
497
498
499
500
501
502
503
504
505
506
507
508
509
510
511
512
513
514
515
516
517
518
519
520
521
522
523
524
525
526
527
528
529
530
531
532
533
534
535
536
537
538
539
540
541
542
543
544
545
546
547
548
549
550
551
552
553
554
555
556
557
558
559
560
561
562
563
564
565
566
567
568
569
570
571
572
573
574
575
576
577
578
579
580
581
582
583
584
585
586
587
588
589
590
591
592
593
594
595
596
597
598
599
600
601
602
603
604
605
606
607
608
609
610
611
612
613
614
615
616
617
618
619
620
621
622
623
624
625
626
627
628
629
630
631
632
633
634
635
636
637
638
639
640
641
642
643
644
645
646
647
648
649
650
651
652
653
654
655
656
657
658
659
660
661
662
663
664
665
666
667
668
669
670
671
672
673
674
675
676
677
678
679
680
681
682
683
684
685
686
687
688
689
690
691
692
693
694
695
696
697
698
699
700
701
702
703
704
705
706
707
708
709
710
711
712
713
714
715
716
717
718
719
720
721
722
723
724
725
726
727
728
729
730
731
732
733
734
735
736
737
738
739
740
741
742
743
744
745
746
747
748
749
750
751
752
753
754
755
756
757
758
759
760
761
762
763
764
765
766
767
768
769
770
771
772
773
774
775
776
777
778
779
780
781
782
783
784
785
786
787
788
789
790
791
792
793
794
795
796
797
798
799
800
801
802
803
804
805
806
807
808
809
810
811
812
813
814
815
816
817
818
819
820
821
822
823
824
825
826
827
828
829
830
831
832
833
834
835
836
837
838
839
840
841
842
843
844
845
846
847
848
849
850
851
852
853
854
855
856
857
858
859
860
861
862
863
864
865
866
867
868
869
870
871
872
873
874
875
876
877
878
879
880
881
882
883
884
885
886
887
888
889
890
891
892
893
894
895
896
897
898
899
900
901
902
903
904
905
906
907
908
909
910
911
912
913
914
915
916
917
918
919
920
921
922
923
924
925
926
927
928
929
930
931
932
933
934
935
936
937
938
939
940
941
942
943
944
945
946
947
948
949
950
951
952
953
954
955
956
957
958
959
960
961
962
963
964
965
966
967
968
969
970
971
972
973
974
975
976
977
978
979
980
981
982
983
984
985
986
987
988
989
990
991
992
993
994
995
996
997
998
999
1000
1001
1002
1003
1004
1005
1006
1007
1008
1009
1010
1011
1012
1013
1014
1015
1016
1017
1018
1019
1020
1021
1022
1023
1024
1025
1026
1027
1028
1029
1030
1031
1032
1033
1034
1035
1036
1037
1038
1039
1040
1041
1042
1043
1044
1045
1046
1047
1048
1049
1050
1051
1052
1053
1054
1055
1056
1057
1058
1059
1060
1061
1062
1063
1064
1065
1066
1067
1068
1069
1070
1071
1072
1073
1074
1075
1076
1077
1078
1079
1080
1081
1082
1083
1084
1085
1086
1087
1088
1089
1090
1091
1092
1093
1094
1095
1096
1097
1098
1099
1100
1101
1102
1103
1104
1105
1106
1107
1108
1109
1110
1111
1112
1113
1114
1115
1116
1117
1118
1119
1120
1121
1122
1123
1124
1125
1126
1127
1128
1129
1130
1131
1132
1133
1134
1135
1136
1137
1138
1139
1140
1141
1142
1143
1144
1145
1146
1147
1148
1149
1150
1151
1152
1153
1154
1155
1156
1157
1158
1159
1160
1161
1162
1163
1164
1165
1166
1167
1168
1169
1170
1171
1172
1173
1174
1175
1176
1177
1178
1179
1180
1181
1182
1183
1184
1185
1186
1187
1188
1189
1190
1191
1192
1193
1194
1195
1196
1197
1198
1199
1200
1201
1202
1203
1204
1205
1206
1207
1208
1209
1210
1211
1212
1213
1214
1215
1216
1217
1218
1219
1220
1221
1222
1223
1224
1225
1226
1227
1228
1229
1230
1231
1232
1233
1234
1235
1236
1237
1238
1239
1240
1241
1242
1243
1244
1245
1246
1247
1248
1249
1250
1251
1252
1253
1254
1255
1256
1257
1258
1259
1260
1261
1262
1263
1264
1265
1266
1267
1268
1269
1270
1271
1272
1273
1274
1275
1276
1277
1278
1279
1280
1281
1282
1283
1284
1285
1286
1287
1288
1289
1290
1291
1292
1293
1294
1295
1296
1297
1298
1299
1300
1301
1302
1303
1304
1305
1306
1307
1308
1309
1310
1311
1312
1313
1314
1315
1316
1317
1318
1319
1320
1321
1322
1323
1324
1325
1326
1327
1328
1329
1330
1331
1332
1333
1334
1335
1336
1337
1338
1339
1340
1341

VECTORS Velocity float
0 0 -0.00588625
-0.029055 -0.0328988 0.0189711
-0.0254988 -0.0251581 0.0321968
-0.0314604 -0.0287359 0.0207589
0 0 -0.00588625
-0.0131174 -0.0142942 0.00815731
-0.0148292 -0.0146548 0.0191802
-0.0155998 -0.0129486 0.00986269
-0.0242852 -0.0204652 0.0372144
-0.0321455 -0.0238812 0.0250303
-0.0160947 -0.0124386 0.0204451
-0.0182721 -0.0122332 0.0072179
-0.0247861 -0.0167113 0.0402023
-0.0328147 -0.0190291 0.0283072
-0.0180262 -0.011803 0.01975
-0.0204044 -0.0112159 0.00543442
-0.0251456 -0.0144194 0.0418104
-0.033989 -0.0165638 0.0298603
-0.0184325 -0.0095257 0.0190873
-0.021603 -0.00919361 0.00358456
-0.0265725 -0.0119116 0.0419484
-0.0351301 -0.0136362 0.0301633
-0.0192408 -0.00853945 0.0184001
-0.0225311 -0.00853235 0.00272408
-0.02723 -0.00935835 0.0433135
-0.0364845 -0.0114197 0.0309578
-0.0197544 -0.00626173 0.0178496
-0.0234777 -0.00670203 0.00147189
-0.0288288 -0.00655992 0.0427875
-0.0377108 -0.00791129 0.0302872
-0.0205544 -0.00486609 0.0175412
-0.0241445 -0.00530488 0.00126826
-0.0300655 -0.00423706 0.0425931
-0.0388088 -0.0052816 0.0299505
-0.0212566 -0.00300661 0.0157317
-0.0245556 -0.00336765 -0.000167737
-0.0308326 -0.000661588 0.0405941
-0.0399167 -0.00159369 0.0277219
-0.0217341 -0.0019787 0.0163256
-0.0250847 -0.00268308 7.35708e-05
-0.0302226 0 0.0392287
-0.0402951 0 0.0230229
-0.0213384 0 0.0169151
-0.0251677 0 -0.000172294
-0.024754 -0.0323703 0.0241386
-0.0209692 -0.0240547 0.0366269
-0.0120227 -0.0176218 0.0068984
-0.0127996 -0.0158146 0.0200659
-0.0192538 -0.0189067 0.0401794
-0.0144932 -0.0141073 0.0229762
-0.0185916 -0.0156029 0.0415112
-0.01549 -0.0127398 0.0231425
-0.0191167 -0.0136768 0.0423482
-0.0157781 -0.0102086 0.0235103
-0.0195544 -0.0111865 0.0430396
-0.0158817 -0.00876084 0.0239118
-0.0198822 -0.00858935 0.0443592
-0.0162787 -0.00642773 0.023728
-0.0207793 -0.00596136 0.0444179
-0.0167961 -0.00491414 0.023966
-0.0218223 -0.00358544 0.0448455
-0.0174766 -0.00292868 0.0226588
-0.0221121 -0.000270245 0.0426109
-0.0178193 -0.00187133 0.0232649
-0.0224259 0 0.0395259
-0.0180776 0 0.0228889
-0.0191928 -0.0329184 0.0279751
-0.0169618 -0.0246209 0.040006
-0.0111083 -0.0200523 0.00550622
-0.011744 -0.0176373 0.0200406
-0.0156732 -0.0185205 0.0415714
-0.0127698 -0.0150965 0.0232686
-0.0159183 -0.0156117 0.0421002
-0.0133555 -0.0132919 0.0242604
-0.015098 -0.013256 0.0428243
-0.0127223 -0.00976402 0.0255279
-0.0153475 -0.0106022 0.043608
-0.0126369 -0.00825448 0.0263685
-0.0148164 -0.00816345 0.0445511
-0.0127138 -0.00632832 0.0262904
-0.0157098 -0.00594593 0.0445743
-0.0134192 -0.00493487 0.0267323
-0.0164533 -0.00351347 0.0450925
-0.01441 -0.00317639 0.0257696
-0.0168557 -0.000302393 0.0428483
-0.0148515 -0.00194199 0.0262543
-0.0171879 0 0.039992
-0.0151627 0 0.0260532
-0.016682 -0.0338301 0.0297614
-0.014466 -0.024987 0.0418011
-0.00899957 -0.0216148 0.0037111
-0.00939927 -0.0183653 0.0190981
-0.0138639 -0.0188246 0.0423947
-0.0102751 -0.0155977 0.0234861
-0.0132384 -0.0150866 0.0428032
-0.0100167 -0.0124545 0.0254423
-0.0127752 -0.0123167 0.0434003
-0.00892606 -0.0087552 0.0271231
-0.011844 -0.00959613 0.0438095
-0.00881603 -0.00723297 0.0280126
-0.0112742 -0.00722755 0.0443342
-0.00863659 -0.00550037 0.0281669
-0.0113507 -0.00524085 0.04437
-0.00905103 -0.00420129 0.0287747
-0.012002 -0.00288547 0.0449353
-0.00975476 -0.00257607 0.028121
-0.0120482 -2.62284e-05 0.0430407
-0.00996013 -0.00161838 0.0284392
-0.0125387 0 0.0406696
-0.0102412 0 0.0282822
-0.0131615 -0.0352108 0.0301469
-0.0117477 -0.0265138 0.0419052
-0.00842946 -0.022567 0.00269384
-0.00859868 -0.0192034 0.0183622
-0.0111207 -0.0195362 0.0429559
-0.00879936 -0.0158456 0.0238827
-0.0108569 -0.0151945 0.0435147
-0.00833006 -0.012534 0.0263469
-0.00960684 -0.0119153 0.0438035
-0.00746255 -0.00863224 0.0280019
-0.00829241 -0.00792238 0.0439555
-0.00642999 -0.00644007 0.0290991
-0.00596718 -0.00488204 0.0442799
-0.0049374 -0.00353618 0.0294611
-0.00546852 -0.00270683 0.0445251
-0.00426523 -0.00193208 0.0299728
-0.00519056 -0.000837413 0.0451974
-0.00434051 -0.000784744 0.0293266
-0.00561916 0.000955946 0.0435566
-0.00467375 -0.000591598 0.029387
-0.00568625 0 0.0416566
-0.00476715 0 0.029081
-0.0111746 -0.0364719 0.0308867
-0.00916708 -0.0273075 0.0432476
-0.00607057 -0.0235161 0.00167477
-0.00578752 -0.0198129 0.0179896
-0.00857798 -0.0198647 0.0443271
-0.00624615 -0.0162677 0.0237984
-0.00808027 -0.0149036 0.0445316
-0.00628044 -0.0127353 0.0263243
-0.00741189 -0.0111391 0.0443349
-0.00555253 -0.00860798 0.0281975
-0.00470237 -0.00615556 0.0443173
-0.00364599 -0.00483372 0.0294648
-0.00223638 -0.00189788 0.0447173
-0.00103122 -0.00110301 0.0297402
-0.000554637 -4.33922e-05 0.045088
-6.40197e-05 0.000629681 0.0299327
-0.00100167 0.0011755 0.0457767
-0.000424583 0.00107314 0.0291649
-0.00148562 0.00192673 0.0442671
-0.00117157 0.000370317 0.0289692
-0.00205265 0 0.0427401
-0.00148038 0 0.028617
-0.00726642 -0.0376971 0.0303911
-0.00612623 -0.0287055 0.0428742
-0.00493027 -0.0241242 0.00127722
-0.00462876 -0.0204844 0.017533
-0.00567511 -0.0207292 0.0444626
-0.00473705 -0.0167607 0.0239735
-0.00591092 -0.0155786 0.0445903
-0.00487546 -0.0133328 0.026758
-0.00518989 -0.0113677 0.0443638
-0.00419391 -0.00901982 0.0287993
-0.00286363 -0.00528981 0.044518
-0.00196288 -0.00422577 0.0299799
0.000138742 -0.00075686 0.0451219
0.00053057 2.37972e-05 0.0299321
0.00103895 0.0013384 0.045592
0.00160737 0.00153029 0.0297197
0.00120624 0.00217551 0.0461447
0.00109481 0.00195628 0.0288165
0.000381089 0.00256226 0.0447127
0.000490387 0.00101463 0.0284279
0.000290856 0 0.0434999
0.000228538 0 0.0279568
-0.00499343 -0.0386379 0.0299175
-0.00400787 -0.0299777 0.0425632
-0.00288919 -0.024408 4.77138e-05
-0.00263897 -0.0211521 0.0158995
-0.00347909 -0.0216653 0.0448342
-0.00274337 -0.0173437 0.0227515
-0.00342309 -0.0164192 0.045091
-0.00309373 -0.0143537 0.0258065
-0.00293614 -0.0118954 0.0449374
-0.00260006 -0.0096949 0.0281376
-0.00081523 -0.00525187 0.0451827
-0.000801397 -0.00434236 0.0293387
0.00104028 -0.000850329 0.0457657
0.00105572 -0.000412281 0.0291721
0.00235263 0.00100111 0.0461737
0.00188197 0.00116208 0.028816
0.00259046 0.0028418 0.0465995
0.00231739 0.00223633 0.0276958
0.0029593 0.00302528 0.0450233
0.00214812 0.00140349 0.0272241
0.00272522 0 0.0439887
0.00219141 0 0.0267916
-0.00133057 -0.0397365 0.0278399
-0.000506305 -0.0305598 0.0407031
-0.0024995 -0.0249 0.000101687
-0.00188658 -0.0215118 0.0163418
-0.000189053 -0.0219431 0.0426794
-0.00182513 -0.0176631 0.0232901
-0.000310881 -0.0166488 0.0428769
-0.00192982 -0.0146918 0.0262916
-3.08157e-05 -0.0120108 0.0430492
-0.00161865 -0.00989534 0.0284751
0.000899841 -0.0054929 0.0435634
-0.000620141 -0.00460298 0.0294126
0.00195479 -0.00154527 0.0442575
0.00037106 -0.00116789 0.028987
0.00248495 0.000529829 0.0447115
0.00101948 0.000508799 0.0284313
0.00314431 0.00279411 0.0450415
0.00136108 0.0022011 0.0272206
0.00335317 0.00346664 0.0427031
0.0014223 0.00140288 0.0266676
0.00388315 0 0.0409367
0.0013674 0 0.0262419
0 -0.0399853 0.0230016
0 -0.0300018 0.0392086
0 -0.0248766 5.11898e-05
0 -0.021107 0.0170988
0 -0.0221538 0.0395232
0 -0.017833 0.0230109
0 -0.017056 0.0400077
0 -0.0150083 0.026115
0 -0.0123556 0.0406902
0 -0.0101053 0.0283234
0 -0.00568023 0.0416674
0 -0.00472683 0.0291141
0 -0.00192294 0.0427529
0 -0.00141471 0.028636
0 0.000216528 0.0434912
0 0.00023179 0.0279665
0 0.00286094 0.0439775
0 0.00219428 0.0267903
0 0.00379444 0.0409472
0 0.00138432 0.0262405
0 0 0.0333742
0 0 0.0256561
0 0 -0.00588625
-0.00803341 -0.0107804 0.0662937
-0.00942075 -0.00882543 0.0644013
-0.0109239 -0.00743602 0.0650985
-0.0112712 -0.00969043 0.0668807
-0.0119919 -0.00800458 0.065565
-0.0123313 -0.0079924 0.0667612
-0.0127861 -0.00609138 0.0638689
-0.0130541 -0.00729238 0.0673955
-0.0132711 -0.005605 0.0633132
-0.013588 -0.00569492 0.0662977
-0.0134222 -0.00422667 0.0613068
-0.0139901 -0.00490486 0.0675081
-0.0135728 -0.00394311 0.061701
-0.0144352 -0.00319199 0.0660445
-0.0137858 -0.00258524 0.0601456
-0.0146139 -0.00266151 0.0658723
-0.0137827 -0.00230281 0.0600562
-0.0150744 -0.000935509 0.0645504
-0.0141352 -0.000988537 0.0583187
-0.0151118 0 0.0660989
-0.0141435 0 0.0593075
-0.00810484 -0.0113652 0.0658221
-0.00938972 -0.0104063 0.0669328
-0.0115546 -0.0111518 0.0703652
-0.0122487 -0.00965466 0.0720002
-0.0127478 -0.00880952 0.073738
-0.0126369 -0.00666246 0.0738995
-0.0127828 -0.00563201 0.0755489
-0.0132556 -0.00393947 0.0746727
-0.0135962 -0.00301845 0.074896
-0.0140094 -0.00104336 0.0737638
-0.0139979 0 0.0745791
-0.00591123 -0.012753 0.0638391
-0.00783425 -0.0122321 0.0667464
-0.009702 -0.011926 0.0718673
-0.0103479 -0.0101833 0.0753862
-0.0101765 -0.00857893 0.0783889
-0.0102917 -0.00645428 0.0795598
-0.0106567 -0.0058392 0.081649
-0.0115356 -0.00444178 0.0813636
-0.0125152 -0.00363947 0.0818732
-0.0130314 -0.00130608 0.0811766
-0.0133066 0 0.0822885
-0.00557741 -0.0131933 0.0631648
-0.0074105 -0.0129405 0.0672254
-0.00887129 -0.0125454 0.0736629
-0.0087856 -0.0100329 0.0782599
-0.00854289 -0.0082652 0.0817135
-0.00873478 -0.00642721 0.0835083
-0.00909234 -0.00581545 0.0858982
-0.00987849 -0.00446633 0.0863509
-0.010647 -0.00356019 0.0870497
-0.011082 -0.00132169 0.0865673
-0.0112653 0 0.0875356
-0.00373514 -0.0134912 0.0614029
-0.00537815 -0.0136068 0.0663049
-0.00664423 -0.0125706 0.0738182
-0.00658121 -0.0101645 0.0795053
-0.00658182 -0.0086351 0.0834874
-0.0064016 -0.00627068 0.0863025
-0.00533574 -0.0042538 0.0890903
-0.00501593 -0.00251939 0.0898827
-0.00525241 -0.00192593 0.0904526
-0.00563872 -0.000502661 0.0899197
-0.00579284 0 0.0907166
-0.00368331 -0.0136544 0.0615603
-0.00476896 -0.0140557 0.0673608
-0.00552293 -0.0128497 0.075463
-0.00580224 -0.0106661 0.0816087
-0.00584693 -0.00906846 0.0858928
-0.00426915 -0.00532262 0.0890666
-0.00201301 -0.00193608 0.0917371
-0.00118749 -0.000367965 0.0922996
-0.00185751 -0.000338011 0.0924828
-0.00285703 0.000210063 0.0917428
-0.00319508 0 0.0923452
-0.00194212 -0.0137582 0.0603104
-0.00271279 -0.0143914 0.0661414
-0.00370964 -0.013193 0.0746843
-0.00436836 -0.0114999 0.0813273
-0.00450185 -0.00983564 0.0863247
-0.00255899 -0.00498211 0.0898695
-0.000381567 -0.00118684 0.0922844
0.000174452 0.000234926 0.0924536
-0.000423253 0.000274264 0.0923143
-0.00110837 0.00060796 0.0914015
-0.00143381 0 0.0918863
-0.00204375 -0.0136986 0.0599751
-0.0024959 -0.0145348 0.065776
-0.00290544 -0.0135366 0.0748389
-0.00358655 -0.0124637 0.0818505
-0.00355192 -0.0106436 0.0870342
-0.00196357 -0.00523808 0.0904437
-0.000368999 -0.00184994 0.0924829
0.000283394 -0.000429116 0.0923047
0.000519478 0.000575918 0.091801
0.000465932 0.000956148 0.090861
0.000496495 0 0.0912517
-0.000728653 -0.0139392 0.0585273
-0.000762051 -0.0148859 0.0646998
-0.000972817 -0.0138382 0.0738309
-0.00128992 -0.012913 0.0811866
-0.0013437 -0.0110031 0.0865672
-0.000508139 -0.00562595 0.0899212
0.000190549 -0.00281905 0.091749
0.00059882 -0.00109833 0.0914033
0.000962418 0.000476779 0.0908529
0.00107717 0.00109681 0.0898826
0.00119609 0 0.0902383
0 -0.0139141 0.0592673
0 -0.0148988 0.0660389
0 -0.0138186 0.0745524
0 -0.0131569 0.0822932
0 -0.0111758 0.0875498
0 -0.00572865 0.0907304
0 -0.00318764 0.0923478
0 -0.00139124 0.0918872
0 0.000521972 0.0912505
0 0.00121368 0.0902326
0 0 0.0906169
0 0 -0.00588625
-0.00597397 -0.00802288 0.0507692
-0.0110217 -0.0111807 0.0459285
-0.00992379 -0.00685086 0.0481422
-0.0118892 -0.00865361 0.0472193
-0.0100734 -0.00482105 0.0492584
-0.0125376 -0.0080939 0.0488873
-0.0102637 -0.00390807 0.0503392
-0.0124966 -0.00594507 0.0482122
-0.00991307 -0.00235199 0.0487324
-0.0127517 -0.0050968 0.0488019
-0.00970221 -0.00210567 0.048539
-0.0129491 -0.00339298 0.0472074
-0.00949796 -0.00102295 0.0461275
-0.0131722 -0.00292339 0.0475474
-0.00927502 -0.00115392 0.0462616
-0.0134882 -0.00155957 0.0453282
-0.00918184 -0.000431621 0.0440287
-0.0137857 -0.00106465 0.0458252
-0.00924037 -0.000570981 0.0442576
-0.0136665 0 0.0446293
-0.00889621 0 0.0429281
-0.00501103 -0.0100918 0.0495597
-0.00926507 -0.011869 0.0473149
-0.00963825 -0.00917859 0.0510521
-0.0103319 -0.00899983 0.0545399
-0.0107917 -0.00722232 0.0551182
-0.0110069 -0.00611522 0.0563938
-0.0114263 -0.00446166 0.0555026
-0.0116676 -0.003731 0.0559896
-0.0122376 -0.00222276 0.0540085
-0.0123942 -0.00146815 0.0547209
-0.012601 0 0.0531874
-0.00408522 -0.0101455 0.0499263
-0.00814218 -0.0123959 0.0485979
-0.00907103 -0.0101594 0.0542676
-0.0101594 -0.0100824 0.058425
-0.010081 -0.00779676 0.0601312
-0.0102959 -0.00664752 0.061693
-0.0105179 -0.00513414 0.0616985
-0.0111875 -0.00455056 0.0624752
-0.012173 -0.00298574 0.0610353
-0.0124834 -0.00194066 0.0620523
-0.0129301 0 0.0607706
-0.00198926 -0.00999455 0.0488337
-0.00577221 -0.0125028 0.0481809
-0.00735269 -0.0106509 0.055066
-0.00803928 -0.00991771 0.0601217
-0.00777268 -0.00759961 0.0629486
-0.00818015 -0.00663249 0.0654007
-0.0084612 -0.00519835 0.0667865
-0.00902333 -0.00452444 0.0682531
-0.0097888 -0.00284556 0.0675
-0.00992744 -0.00182035 0.0686099
-0.0102119 0 0.0674804
-0.00205485 -0.00974812 0.0482569
-0.00517663 -0.012784 0.0485574
-0.00614821 -0.010985 0.056263
-0.00672414 -0.0102426 0.0616973
-0.00678426 -0.00808385 0.0654164
-0.00650714 -0.00646438 0.0694746
-0.00532664 -0.00358198 0.071594
-0.00486604 -0.00258149 0.0731877
-0.00507937 -0.00119209 0.0726314
-0.00556625 -0.000950428 0.073443
-0.00573488 0 0.072543
-0.000326272 -0.00959879 0.0463395
-0.00290348 -0.0130242 0.0473188
-0.00429558 -0.0114712 0.055489
-0.00512906 -0.0105699 0.0616282
-0.00523142 -0.00848924 0.066755
-0.00362262 -0.0052983 0.0715705
-0.00131101 -0.00130611 0.0739452
-0.000419188 -0.000285465 0.07533
-0.00119888 0.000305275 0.0745904
-0.00208122 -0.000184191 0.0748987
-0.00254017 0 0.0741329
-0.000905678 -0.00929194 0.0460753
-0.00276386 -0.0131894 0.0473596
-0.00359796 -0.0116822 0.0558854
-0.00449738 -0.0111779 0.0624255
-0.00453734 -0.00903437 0.0682106
-0.00261433 -0.0048663 0.073155
-0.000322147 -0.000402562 0.0753244
0.000296127 0.000287169 0.0762928
-0.000331484 0.000927428 0.0750221
-0.00109482 0.000210504 0.0747838
-0.00143453 0 0.074038
5.79823e-05 -0.00911215 0.0442745
-0.00121242 -0.0134117 0.045494
-0.00205475 -0.0121819 0.0540567
-0.00293046 -0.0121599 0.061008
-0.00285854 -0.00979447 0.0674706
-0.00120547 -0.00510653 0.0726159
0.000293789 -0.00120809 0.0745837