# vtk DataFile Version 3.0
vtk output
ASCII
DATASET UNSTRUCTURED_GRID
FIELD FieldData 2
TIME 1 1 double
0.00103156
CYCLE 1 1 int
0
POINTS 450 float
1467.23 -389.949 514.871
1483.05 -389.95 551.723
1484.14 -344.95 551.044
1468.42 -344.949 514.182
1461.83 -388.65 515.554
1477.65 -388.6 553.966
1477.54 -344.95 553.977
1461.73 -344.95 515.585
1498.76 -389.95 588.586
1499.96 -344.95 587.896
1493.36 -388.6 590.818
1493.36 -344.95 590.839
1514.58 -389.95 625.438
1515.78 -344.95 624.748
1509.18 -388.59 627.67
1509.18 -344.95 627.691
1529.1 -389.95 661.741
1531.6 -344.95 661.6
1526 -388.67 666.972
1526.6 -344.95 666.633
1518.21 -414.881 671.055
1518.11 -408.461 671.096
1523.2 -400.161 669.143
1527.7 -402.41 666.041
1499.79 -414.941 629.974
1500.18 -408.091 629.984
1505.28 -399.24 628.472
1510.18 -402.44 626.23
1484.37 -414.951 594.042
1484.57 -408.22 593.532
1489.57 -399.13 591.81
1494.56 -402.45 589.837
1468.15 -414.95 556.27
1468.45 -408.66 556.31
1473.65 -399.36 554.768
1478.65 -402.45 552.525
1452.33 -414.96 519.408
1452.83 -408.06 519.398
1457.83 -399.22 516.366
1462.83 -402.46 515.663
1467.22 -299.949 514.883
1483.04 -299.95 551.735
1461.82 -301.24 515.566
1477.54 -301.3 553.968
1498.76 -299.95 588.588
1493.36 -301.3 590.83
1514.58 -299.95 625.44
1509.18 -301.31 627.682
1530.1 -299.95 661.742
1526 -301.23 666.974
1518.2 -275.021 671.069
1527.7 -287.49 666.044
1523.2 -289.741 669.156
1518.1 -281.441 671.098
1499.78 -274.961 629.988
1510.18 -287.46 626.242
1505.28 -290.66 628.475
1500.18 -281.811 629.987
1484.36 -274.951 594.055
1494.56 -287.45 589.84
1489.56 -290.77 591.822
1484.56 -281.68 593.535
1468.14 -274.95 556.273
1478.54 -287.45 552.528
1473.64 -290.53 554.78
1468.44 -281.23 556.313
1452.32 -274.93 519.421
1462.82 -287.44 515.676
1457.82 -290.67 516.378
1452.82 -281.83 519.411
1474.17 -224.305 548.867
1483.49 -254.977 550.894
1466.71 -255.08 514.159
1457.39 -227.338 515.006
1528.5 -255.07 660.967
1531.77 -299.927 661.644
1516.51 -299.946 625.18
1517.06 -255.046 624.701
1500.81 -299.951 588.241
1499.32 -254.998 587.735
1485.04 -299.949 551.393
1468.98 -299.943 514.6
1445.91 -299.694 473.422
1441.38 -261.468 474.957
1422.9 -304.977 434.75
1417.9 -270.879 435.114
1399.91 -310.371 399.998
1389.01 -279.702 404.074
1533.3 -344.952 661.498
1517.96 -344.956 624.425
1502.31 -344.95 587.454
1486.4 -344.948 550.594
1470.37 -344.946 513.839
1448.21 -344.502 474.051
1425.59 -345.141 434.389
1401.91 -344.23 399.447
1340.3 -389.95 811.66
1348 -428.58 807.22
1368.9 -425.63 821.23
1357.1 -389.95 828.63
1534.72 -389.949 709.31
1526.3 -389.948 748.194
1518.3 -428.979 747.005
1528.44 -432.302 715.438
1394.4 -424.65 835.95
1378.2 -389.95 851.15
1405.3 -389.95 858.35
1426.6 -425.35 831.07
1482.2 -383.22 832.55
1464.7 -425.87 817.99
1508.2 -389.95 793.329
1499.5 -425.83 786.54
1489.97 -224.123 587.256
1505.18 -224.203 625.519
1519.29 -224.212 664.354
1400.21 -378.08 399.918
1423.6 -384.073 434.71
1509.68 -465.558 625.841
1514.26 -434.944 622.846
1528.88 -434.891 659.638
1525.79 -465.557 664.284
1493.37 -465.458 587.496
1498.89 -434.96 586.869
1516.37 -389.951 625.242
1530.76 -389.969 661.648
1500.76 -389.951 588.258
1482.71 -434.956 549.067
1485.05 -389.945 551.381
1466.91 -434.959 512.244
1469.06 -389.958 514.566
1441.39 -428.429 474.955
1448.21 -389.683 472.092
1417.89 -419.023 435.116
1389.01 -410.198 404.074
1343.1 -299.95 810.49
1358.1 -299.95 828.24
1366.2 -264.27 820.17
1349.9 -261.32 806.44
1527 -299.951 750.944
1535.62 -299.95 709.537
1528.43 -257.588 715.434
1521.1 -260.911 753.445
1378.7 -299.95 849.84
1397.6 -265.25 835.7
1403.4 -299.95 859.13
1427.2 -264.54 835.15
1482.2 -306.68 832.55
1467.5 -264.02 822.2
1510.2 -299.95 790.319
1503.6 -264.06 785.899
1372.8 -228.6 816.03
1356.7 -226.69 802.39
1513.7 -223.229 720.835
1512.7 -219.842 753.047
1404.6 -225.54 824.41
1430.2 -224.14 823.28
1461.5 -223.09 811.63
1495.1 -223.18 782.26
1490.6 -181.851 729.75
1486.6 -178.491 756.04
1406.2 -179.84 813.23
1380.9 -177.96 810.2
1429.7 -179.73 810.73
1454.4 -179.16 800.44
1477.4 -178.29 782.53
1519.2 -464.674 718.497
1508.8 -344.95 790.899
1525.4 -344.95 748.322
1535.16 -344.948 709.873
1338.4 -470.03 775.14
1356.7 -463.21 802.39
1321 -431.49 780.71
1315.9 -388.99 783.27
1336.6 -344.95 813.22
1311 -345.95 785.28
1314.3 -302.91 783.96
1322.7 -260.4 780.06
1338.4 -219.93 775.15
1362.6 -177.06 798.73
1483.5 -344.61 831.85
1415.9 -178 794.07
1451 -176.32 778.04
1444.2 -181.59 754.3
1406.2 -178.32 775.34
1433.2 -178.59 730.76
1396.8 -179.32 745.63
1472.7 -182.85 708.02
1352.4 -194.66 770.44
1379.7 -510.94 807.44
1422 -509.89 790.41
1433.9 -512.17 807.86
1405.1 -510.05 810.47
1456.7 -509.57 773.46
1457.8 -509.73 795.72
1490.3 -505.41 754.48
1481.1 -507.6 780.97
1452.5 -507.31 750.79
1498 -503.04 726.62
1411.7 -500.57 773
1362.6 -507.84 798.73
1396.8 -510.59 745.63
1433.2 -511.32 730.76
1472.7 -507.06 708.02
1352.4 -495.25 770.46
1379.1 -250.48 408.113
1362.8 -222.381 415.122
1385.4 -214.483 441.372
1401.91 -244.236 433.398
1404.9 -206.865 470.401
1421.01 -239.44 461.783
1424.6 -196.415 498.44
1440.8 -231.098 489.055
1339.5 -203.09 424.46
1361.4 -196.9 451.24
1380.6 -191.831 480.49
1399.5 -182.671 509.2
1312.2 -190.98 435.09
1329.2 -187.95 464.33
1343.7 -185.88 495.72
1357.8 -179.88 526.93
1282.4 -191.12 446.19
1295.5 -188.83 477.57
1306.7 -187.34 510.78
1317.2 -182.21 543.98
1254.6 -201.93 455.92
1263.4 -200.61 490.04
1270.5 -199.95 525.69
1229.6 -220.59 464.66
1237.1 -221.63 502.22
1243.3 -223.16 540.98
1247.9 -222.29 579.98
1276.5 -196.1 561.46
1216.4 -251.35 470.13
1223.4 -252.42 508.13
1229.6 -253.82 546.98
1234 -253.67 586.11
1205.5 -281.53 474.88
1213.6 -283.53 512.49
1221.3 -285.72 550.64
1227.2 -286.99 589.11
1200.9 -313.47 477.92
1209.8 -314.49 515
1218.8 -315.54 552.3
1226.1 -316.14 589.97
1199.3 -344.61 480.18
1208.3 -344.84 516.93
1217.7 -344.96 553.57
1225.7 -344.95 590.6
1401.91 -445.673 433.4
1385.4 -475.416 441.372
1362.8 -467.528 415.122
1379.1 -439.43 408.113
1421.01 -450.465 461.786
1404.9 -480.034 470.4
1440.8 -458.798 489.058
1424.6 -487.495 498.449
1361.4 -492.009 451.24
1339.5 -486.819 424.46
1380.6 -495.079 480.49
1399.5 -499.239 509.2
1329.2 -501.96 464.33
1312.2 -498.92 435.09
1343.7 -504.02 495.72
1357.8 -510.02 526.93
1295.5 -501.08 477.57
1282.4 -498.78 446.19
1306.7 -502.57 510.78
1317.2 -507.7 543.98
1263.4 -489.3 490.04
1254.6 -487.98 455.92
1270.5 -489.95 525.69
1237.1 -468.28 502.22
1229.6 -469.31 464.66
1243.3 -466.74 540.98
1276.5 -493.81 561.46
1247.9 -467.62 579.98
1223.4 -437.49 508.13
1216.4 -438.55 470.13
1229.6 -436.09 546.98
1234 -436.23 586.11
1213.6 -406.38 512.49
1205.5 -408.38 474.88
1221.3 -404.19 550.64
1227.2 -402.91 589.11
1209.8 -375.42 515
1200.9 -376.44 477.92
1218.8 -374.37 552.3
1226.1 -373.77 589.97
1462.59 -462.587 515.226
1477.37 -465.564 549.037
1504.3 -190.642 672.119
1482.1 -175.01 682.62
1434.6 -174.89 702.97
1388.6 -179.42 721.17
1343.5 -192.29 739.94
1305.4 -222.02 748.17
1290.7 -254.42 754.79
1285 -289.3 757.01
1284.9 -317.35 756.79
1285.8 -344.99 756.72
1285.9 -372.6 756.89
1285 -400.52 757.05
1290.6 -435.47 754.7
1305.4 -467.93 748.09
1342.5 -497.62 739.93
1388.6 -510.49 721.17
1434.5 -515.01 703.04
1482.2 -510.88 682.75
1504.6 -498.05 671.96
1441.2 -189.264 525.769
1420.8 -178.061 538.19
1373.3 -174.91 558.77
1328.8 -177.58 577.98
1282.7 -192.42 598.37
1251.4 -221.76 620.48
1236.4 -254.35 626.97
1230.8 -289.28 629.39
1230.8 -317.38 629.49
1230.8 -344.95 629.53
1230.8 -372.52 629.49
1230.8 -400.63 629.39
1236.4 -435.56 626.97
1251.4 -468.14 620.47
1282.6 -497.49 598.35
1328.8 -512.34 577.97
1373.2 -515.03 559.05
1419.6 -510.519 538.58
1442.6 -498.337 526.068
1487.9 -189.961 634.269
1468.3 -175.11 650.28
1480.4 -191.321 610.728
1457 -190.392 558.899
1468.3 -190.292 587.899
1420.4 -174.97 669.64
1457.2 -175.111 623.96
1409.6 -174.96 644.22
1447.2 -175.611 600.41
1398.4 -174.97 617.91
1434.8 -176.601 571.29
1386.4 -174.97 589.77
1341.7 -178.98 609.99
1354 -178 637.93
1364 -179.02 662.66
1375.6 -177.97 688.78
1330.6 -192.39 710.66
1318.8 -192.2 681.38
1308 -192.34 656.94
1297.5 -193.06 631.29
1261.8 -221.8 644.91
1273.2 -221.81 671.84
1283.7 -221.82 696.47
1295.1 -221.81 723.4
1280.2 -254.4 730.09
1268.5 -254.4 702.55
1258.3 -254.4 678.55
1246.6 -254.4 651
1241 -289.37 653.34
1252.8 -289.37 680.95
1262.9 -289.37 704.89
1274.6 -289.37 732.49
1274.6 -317.46 732.5
1262.9 -317.46 704.9
1252.7 -317.46 680.96
1241 -317.46 653.35
1241 -344.95 653.35
1252.7 -344.95 680.96
1262.9 -344.95 704.9
1274.6 -344.95 732.5
1274.6 -372.44 732.5
1262.9 -372.45 704.9
1252.7 -372.45 680.96
1241 -372.46 653.35
1241 -400.54 653.34
1252.8 -400.54 680.95
1262.9 -400.54 704.89
1274.6 -400.54 732.49
1280.2 -435.51 730.09
1268.5 -435.5 702.55
1258.3 -435.5 678.55
1246.6 -435.5 651
1261.8 -468.09 644.92
1273.2 -468.09 671.85
1283.7 -468.09 696.47
1295.1 -468.1 723.4
1328.9 -497.56 706.22
1375.8 -511.92 689.29
1420.5 -514.94 670.22
1466.7 -512.79 646.26
1317.8 -497.68 679.14
1363.1 -510.98 660.37
1408.9 -514.94 642.87
1455.9 -512.78 620.8
1489.6 -499.581 634.52
1476.4 -499.821 603.779
1447.1 -511.77 599.86
1469.7 -499.391 588.189
1398.9 -514.94 619.29
1352 -511.45 635.98
1307.9 -497.51 657.27
1296.6 -497.69 629.19
1340.9 -511.02 607.94
1387.2 -514.94 591.86
1433.9 -511.29 571.32
1457.9 -498.701 560.159
1396 -344.95 856.87
1401.9 -356.61 872.83
1411.6 -372.89 872.28
1427.8 -382.61 871.38
1451.8 -382.61 870.04
1468.1 -372.89 869.13
1477.8 -356.61 868.58
1402.8 -356.55 889.47
1412.5 -372.82 889.01
1403.2 -356.53 897.45
1412.9 -372.81 897
1404 -356.47 912.43
1413.7 -372.74 911.98
1404.4 -356.45 920.42
1414.1 -372.73 919.97
1430.4 -382.45 919.15
1429.9 -382.47 911.16
1429.1 -382.53 896.18
1428.7 -382.55 888.2
1452.6 -382.61 886.85
1453 -382.61 894.84
1453.7 -382.61 909.82
1454.2 -382.61 917.81
1470.4 -372.89 917.02
1470 -372.89 909.03
1469.3 -372.89 894.04
1468.9 -372.89 886.06
1480.1 -356.61 916.54
1479.7 -356.61 908.55
1479 -356.61 893.57
1478.6 -356.61 885.58
1481 -356.61 926
1471.3 -372.89 926.54
1455 -382.61 927.45
1431.1 -382.61 928.79
1414.8 -372.89 929.7
1405.1 -356.61 930.24
1369 -344.95 855.06
1376 -461.29 815.78
1511.2 -465.058 749.367
1403.4 -459.35 821.65
1429.9 -460.76 820.13
1461.2 -461.8 808.48
1495.5 -461.72 783.18
1352.1 -344.95 832.32
1494.91 -344.824 590.498

CELLS 452 2216
2 449 2
2 449 3
2 449 6
2 449 7
2 449 40
2 449 41
2 449 42
2 449 43
2 449 44
2 449 45
2 449 54
2 449 55
2 449 56
2 449 57
2 449 58
2 449 59
2 449 60
2 449 61
2 449 62
2 449 63
2 449 64
2 449 65
2 449 66
2 449 67
2 449 68
2 449 69
2 449 9
2 449 11
2 449 13
2 449 15
2 449 17
2 449 19
2 449 46
2 449 47
2 449 48
2 449 49
2 449 50
2 449 51
2 449 52
2 449 53
2 449 8
2 449 10
2 449 12
2 449 14
2 449 16
2 449 18
2 449 20
2 449 21
2 449 22
2 449 23
2 449 24
2 449 25
2 449 26
2 449 27
2 449 28
2 449 29
2 449 30
2 449 31
2 449 0
2 449 1
2 449 4
2 449 5
2 449 32
2 449 33
2 449 34
2 449 35
2 449 36
2 449 37
2 449 38
2 449 39
4 115 95 94 116
4 116 94 93 131
4 70 71 72 73
4 77 76 78 79
4 79 78 80 71
4 71 80 81 72
4 72 81 82 83
4 83 82 84 85
4 85 84 86 87
4 78 90 91 80
4 80 91 92 81
4 81 92 93 82
4 82 93 94 84
4 84 94 95 86
4 112 79 71 70
4 113 77 79 112
4 114 74 77 113
4 153 152 158 159
4 74 114 152 140
4 181 159 158 182
4 183 182 184 185
4 182 158 186 184
4 204 205 206 207
4 207 206 208 209
4 209 208 210 211
4 205 212 213 206
4 206 213 214 208
4 208 214 215 210
4 212 216 217 213
4 213 217 218 214
4 214 218 219 215
4 85 207 209 83
4 204 207 85 87
4 114 290 158 152
4 290 291 186 158
4 292 184 186 291
4 292 293 185 184
4 73 72 83 211
4 211 210 309 73
4 210 215 310 309
4 215 219 311 310
4 328 329 291 290
4 113 328 290 114
4 328 113 112 330
4 331 332 112 70
4 73 309 331 70
4 329 333 292 291
4 330 334 329 328
4 334 335 333 329
4 336 337 335 334
4 332 336 334 330
4 331 338 336 332
4 338 339 337 336
4 310 311 339 338
4 309 310 338 331
4 216 220 221 217
4 217 221 222 218
4 218 222 223 219
4 220 224 225 221
4 221 225 226 222
4 224 227 228 225
4 225 228 229 226
4 226 229 230 231
4 229 234 235 230
4 222 226 231 223
4 293 294 187 185
4 219 223 312 311
4 223 231 313 312
4 231 230 314 313
4 230 235 315 314
4 311 312 340 339
4 339 340 341 337
4 337 341 342 335
4 335 342 343 333
4 333 343 293 292
4 343 344 294 293
4 342 345 344 343
4 341 346 345 342
4 340 347 346 341
4 312 313 347 340
4 313 314 348 347
4 347 348 349 346
4 346 349 350 345
4 345 350 351 344
4 344 351 295 294
4 350 353 352 351
4 349 354 353 350
4 348 355 354 349
4 314 315 355 348
4 330 112 332 332
4 211 83 209 209
4 144 142 441 404
4 280 284 285 281
4 282 286 284 280
4 283 287 286 282
4 320 319 287 283
4 319 320 372 371
4 373 370 371 372
4 373 374 369 370
4 74 75 76 77
4 75 88 89 76
4 76 89 90 78
4 138 139 140 141
4 142 144 145 143
4 144 146 147 145
4 146 148 149 147
4 148 138 141 149
4 141 140 152 153
4 136 143 154 150
4 143 145 155 154
4 145 147 156 155
4 147 149 157 156
4 149 141 153 157
4 150 154 160 161
4 154 155 162 160
4 155 156 163 162
4 156 157 164 163
4 157 153 159 164
4 75 74 140 139
4 148 166 167 138
4 138 167 168 139
4 139 168 88 75
4 178 151 150 161
4 166 148 146 179
4 160 162 180 161
4 162 163 181 180
4 163 164 159 181
4 180 181 182 183
4 161 180 183 178
4 134 135 136 137
4 135 142 143 136
4 137 136 150 151
4 174 173 134 175
4 175 134 137 176
4 176 137 151 177
4 151 178 187 177
4 227 232 233 228
4 228 233 234 229
4 232 236 237 233
4 233 237 238 234
4 234 238 239 235
4 236 240 241 237
4 237 241 242 238
4 238 242 243 239
4 240 244 245 241
4 241 245 246 242
4 242 246 247 243
4 284 245 244 285
4 286 246 245 284
4 287 247 246 286
4 294 295 177 187
4 295 296 176 177
4 296 297 175 176
4 298 299 174 175
4 235 239 316 315
4 239 243 317 316
4 243 247 318 317
4 319 318 247 287
4 351 352 296 295
4 315 316 356 355
4 355 356 357 354
4 354 357 358 353
4 353 358 359 352
4 352 359 297 296
4 359 360 298 297
4 358 361 360 359
4 362 361 358 357
4 356 363 362 357
4 363 356 316 317
4 317 318 364 363
4 363 364 365 362
4 362 365 366 361
4 361 366 367 360
4 360 367 299 298
4 300 299 367 368
4 368 367 366 369
4 369 366 365 370
4 370 365 364 371
4 371 364 318 319
4 134 173 448 135
4 135 448 441 142
4 297 298 175 175
4 96 97 98 99
4 100 101 102 103
4 99 98 104 105
4 106 105 104 107
4 108 106 107 109
4 101 110 111 102
4 110 108 109 111
4 119 124 100 103
4 120 119 103 165
4 166 110 101 167
4 169 170 97 171
4 110 166 179 108
4 188 189 190 191
4 189 192 193 190
4 192 194 195 193
4 196 197 194 192
4 198 196 192 189
4 199 198 189 188
4 200 201 196 198
4 201 202 197 196
4 169 203 199 170
4 201 200 305 306
4 307 202 201 306
4 197 202 307 308
4 308 120 165 197
4 307 306 386 387
4 308 307 387 392
4 120 308 392 117
4 404 405 406 106
4 106 407 408 108
4 409 410 179 108
4 411 412 406 405
4 413 414 412 411
4 415 416 414 413
4 417 418 416 415
4 418 419 420 416
4 416 420 421 414
4 414 421 422 412
4 412 422 407 406
4 422 423 408 407
4 421 424 423 422
4 420 425 424 421
4 419 426 425 420
4 426 427 428 425
4 425 428 429 424
4 424 429 430 423
4 423 430 409 408
4 427 431 432 428
4 428 432 433 429
4 429 433 434 430
4 430 434 410 409
4 435 431 427 436
4 436 427 426 437
4 437 426 419 438
4 438 419 418 439
4 439 418 417 440
4 404 441 105 106
4 97 170 442 98
4 103 102 443 165
4 98 442 444 104
4 107 104 444 445
4 109 107 445 446
4 102 111 447 443
4 111 109 446 447
4 170 199 188 442
4 165 443 194 197
4 442 188 191 444
4 445 444 191 190
4 446 445 190 193
4 443 447 195 194
4 447 446 193 195
4 173 96 99 448
4 448 99 105 441
4 117 118 119 120
4 121 122 118 117
4 118 123 124 119
4 122 125 123 118
4 392 387 391 393
4 393 121 117 392
4 123 89 88 124
4 125 90 89 123
4 167 101 100 168
4 168 100 124 88
4 408 409 108 108
4 106 407 406 406
4 171 97 96 172
4 172 96 173 174
4 299 300 172 174
4 301 302 171 172
4 302 303 169 171
4 203 169 303 304
4 200 203 304 305
4 301 300 368 375
4 302 301 375 376
4 303 302 376 383
4 304 303 383 384
4 305 304 384 385
4 306 305 385 386
4 126 127 125 122
4 128 129 127 126
4 130 131 129 128
4 132 116 131 130
4 133 115 116 132
4 127 91 90 125
4 129 92 91 127
4 131 93 92 129
4 248 249 250 251
4 252 253 249 248
4 254 255 253 252
4 249 256 257 250
4 253 258 256 249
4 255 259 258 253
4 256 260 261 257
4 258 262 260 256
4 259 263 262 258
4 260 264 265 261
4 262 266 264 260
4 263 267 266 262
4 264 268 269 265
4 266 270 268 264
4 268 271 272 269
4 270 273 271 268
4 274 275 273 270
4 271 276 277 272
4 273 278 276 271
4 275 279 278 273
4 276 280 281 277
4 278 282 280 276
4 279 283 282 278
4 267 274 270 266
4 254 130 128 288
4 130 252 248 132
4 133 132 248 251
4 289 126 122 121
4 288 128 126 289
4 321 320 283 279
4 322 321 279 275
4 323 322 275 274
4 324 323 274 267
4 325 324 267 263
4 326 325 263 259
4 327 326 259 255
4 288 327 255 254
4 376 375 374 377
4 377 374 373 378
4 378 373 372 379
4 379 372 320 321
4 380 379 321 322
4 381 378 379 380
4 382 377 378 381
4 383 376 377 382
4 384 383 382 388
4 385 384 388 389
4 386 385 389 390
4 387 386 390 391
4 393 391 394 395
4 391 390 396 394
4 390 389 397 396
4 389 388 398 397
4 398 381 380 399
4 388 382 381 398
4 397 398 399 400
4 396 397 400 401
4 394 396 401 402
4 395 394 402 403
4 403 402 326 327
4 402 401 325 326
4 401 400 324 325
4 400 399 323 324
4 399 380 322 323
4 289 121 395 403
4 289 403 327 288
4 375 368 369 374
4 300 301 172 172
4 395 121 393 393
4 252 130 254 254
8 54 55 56 57 58 59 60 61
8 40 3 2 41 42 7 6 43
8 58 59 60 61 62 63 64 65
8 62 63 64 65 66 67 68 69
8 44 45 60 59 41 43 64 63
8 41 43 64 63 40 42 68 67
8 44 9 13 46 45 11 15 47
8 46 13 17 48 47 15 19 49
8 50 51 52 53 54 55 56 57
8 48 49 52 51 46 47 56 55
8 46 47 56 55 44 45 60 59
8 41 2 9 44 43 6 11 45
8 8 12 13 9 10 14 15 11
8 12 16 17 13 14 18 19 15
8 20 21 22 23 24 25 26 27
8 24 25 26 27 28 29 30 31
8 16 23 22 18 12 27 26 14
8 12 27 26 14 8 31 30 10
8 0 1 2 3 4 5 6 7
8 1 8 9 2 5 10 11 6
8 28 29 30 31 32 33 34 35
8 32 33 34 35 36 37 38 39
8 8 31 30 10 1 35 34 5
8 1 35 34 5 0 39 38 4

CELL_TYPES 452
3
3
3
3
3
3
3
3
3
3
3
3
3
3
3
3
3
3
3
3
3
3
3
3
3
3
3
3
3
3
3
3
3
3
3
3
3
3
3
3
3
3
3
3
3
3
3
3
3
3
3
3
3
3
3
3
3
3
3
3
3
3
3
3
3
3
3
3
3
3
9
9
9
9
9
9
9
9
9
9
9
9
9
9
9
9
9
9
9
9
9
9
9
9
9
9
9
9
9
9
9
9
9
9
9
9
9
9
9
9
9
9
9
9
9
9
9
9
9
9
9
9
9
9
9
9
9
9
9
9
9
9
9
9
9
9
9
9
9
9
9
9
9
9
9
9
9
9
9
9
9
9
9
9
9
9
9
9
9
5
5
9
9
9
9
9
9
9
9
9
9
9
9
9
9
9
9
9
9
9
9
9
9
9
9
9
9
9
9
9
9
9
9
9
9
9
9
9
9
9
9
9
9
9
9
9
9
9
9
9
9
9
9
9
9
9
9
9
9
9
9
9
9
9
9
9
9
9
9
9
9
9
9
9
9
9
9
9
9
9
9
9
9
9
9
9
9
9
9
9
9
5
9
9
9
9
9
9
9
9
9
9
9
9
9
9
9
9
9
9
9
9
9
9
9
9
9
9
9
9
9
9
9
9
9
9
9
9
9
9
9
9
9
9
9
9
9
9
9
9
9
9
9
9
9
9
9
9
9
9
9
9
9
9
9
9
9
9
9
9
9
9
9
9
9
9
9
9
9
9
9
9
9
9
9
5
5
9
9
9
9
9
9
9
9
9
9
9
9
9
9
9
9
9
9
9
9
9
9
9
9
9
9
9
9
9
9
9
9
9
9
9
9
9
9
9
9
9
9
9
9
9
9
9
9
9
9
9
9
9
9
9
9
9
9
9
9
9
9
9
9
9
9
9
9
9
9
9
9
9
9
9
9
9
9
9
9
9
9
9
9
9
9
9
9
5
5
5
12
12
12
12
12
12
12
12
12
12
12
12
12
12
12
12
12
12
12
12
12
12
12
12

POINT_DATA 450
SCALARS NODE_ID int 1
LOOKUP_TABLE default
1
2
3
4
5
6
7
8
9
10
11
12
13
14
15
16
17
18
19
20
21
22
23
24
25
26
27
28
29
30
31
32
33
34
35
36
37
38
39
40
41
42
43
44
45
46
47
48
49
50
51
52
53
54
55
56
57
58
59
60
61
62
63
64
65
66
67
68
69
70
71
72
73
74
75
76
77
78
79
80
81
82
83
84
85
86
87
88
89
90
91
92
93
94
95
96
97
98
99
100
101
102
103
104
105
106
107
108
109
110
111
112
113
114
115
116
117
118
119
120
121
122
123
124
125
126
127
128
129
130
131
132
133
134
135
136
137
138
139
140
141
142
143
144
145
146
147
148
149
150
151
152
153
154
155
156
157
158
159
160
161
162
163
164
165
166
167
168
169
170
171
172
173
174
175
176
177
178
179
180
181
182
183
184
185
186
187
188
189
190
191
192
193
194
195
196
197
198
199
200
201
202
203
204
205
206
207
208
209
210
211
212
213
214
215
216
217
218
219
220
221
222
223
224
225
226
227
228
229
230
231
232
233
234
235
236
237
238
239
240
241
242
243
244
245
246
247
248
249
250
251
252
253
254
255
256
257
258
259
260
261
262
263
264
265
266
267
268
269
270
271
272
273
274
275
276
277
278
279
280
281
282
283
284
285
286
287
288
289
290
291
292
293
294
295
296
297
298
299
300
301
302
303
304
305
306
307
308
309
310
311
312
313
314
315
316
317
318
319
320
321
322
323
324
325
326
327
328
329
330
331
332
333
334
335
336
337
338
339
340
341
342
343
344
345
346
347
348
349
350
351
352
353
354
355
356
357
358
359
360
361
362
363
364
365
366
367
368
369
370
371
372
373
374
375
376
377
378
379
380
381
382
383
384
385
386
387
388
389
390
391
392
393
394
395
396
397
398
399
400
401
402
403
404
405
406
407
408
409
410
411
412
413
414
415
416
417
418
419
420
421
422
423
424
425
426
427
428
429
430
431
432
433
434
435
436
437
438
439
440
441
442
443
444
445
446
447
448
449
450

SCALARS Mass_Change float 1
LOOKUP_TABLE default
0
0
0
0
0
0
0
0
0
0
0
0
0
0
0
0
0
0
0
0
0
0
0
0
0
0
0
0
0
0
0
0
0
0
0
0
0
0
0
0
0
0
0
0
0
0
0
0
0
0
0
0
0
0
0
0
0
0
0
0
0
0
0
0
0
0
0
0
0
0
0
0
0
0
0
0
0
0
0
0
0
0
0
0
0
0
0
0
0
0
0
0
0
0
0
0
0
0
0
0
0
0
0
0
0
0
0
0
0
0
0
0
0
0
0
0
0
0
0
0
0
0
0
0
0
0
0
0
0
0
0
0
0
0
0
0
0
0
0
0
0
0
0
0
0
0
0
0
0
0
0
0
0
0
0
0
0
0
0
0
0
0
0
0
0
0
0
0
0
0
0
0
0
0
0
0
0
0
0
0
0
0
0
0
0
0
0
0
0
0
0
0
0
0
0
0
0
0
0
0
0
0
0
0
0
0
0
0
0
0
0
0
0
0
0
0
0
0
0
0
0
0
0
0
0
0
0
0
0
0
0
0
0
0
0
0
0
0
0
0
0
0
0
0
0
0
0
0
0
0
0
0
0
0
0
0
0
0
0
0
0
0
0
0
0
0
0
0
0
0
0
0
0
0
0
0
0
0
0
0
0
0
0
0
0
0
0
0
0
0
0
0
0
0
0
0
0
0
0
0
0
0
0
0
0
0
0
0
0
0
0
0
0
0
0
0
0
0
0
0
0
0
0
0
0
0
0
0
0
0
0
0
0
0
0
0
0
0
0
0
0
0
0
0
0
0
0
0
0
0
0
0
0
0
0
0
0
0
0
0
0
0
0
0
0
0
0
0
0
0
0
0
0
0
0
0
0
0
0
0
0
0
0
0
0
0
0
0
0
0
0
0
0
0
0
0
0
0
0
0
0
0
0
0
0
0
0
0
0
0
0
0
0
0
0
0
0
0
0
0
0
0
0
0
0
0
0
0
0
0
0
0
0
0
0
0
0
0
0
0
0
0
0
0
0
0
0
0
0
0

VECTORS Contact_Forces float
0 0 0
0 0 0
0 0 0
0 0 0
0 0 0
0 0 0
0 0 0
0 0 0
0 0 0
0 0 0
0 0 0
0 0 0
0 0 0
0 0 0
0 0 0
0 0 0
0 0 0
0 0 0
0 0 0
0 0 0
0 0 0
0 0 0
0 0 0
0 0 0
0 0 0
0 0 0
0 0 0
0 0 0
0 0 0
0 0 0
0 0 0
0 0 0
0 0 0
0 0 0
0 0 0
0 0 0
0 0 0
0 0 0
0 0 0
0 0 0
0 0 0
0 0 0
0 0 0
0 0 0
0 0 0
0 0 0
0 0 0
0 0 0
0 0 0
0 0 0
0 0 0
0 0 0
0 0 0
0 0 0
0 0 0
0 0 0
0 0 0
0 0 0
0 0 0
0 0 0
0 0 0
0 0 0
0 0 0
0 0 0
0 0 0
0 0 0
0 0 0
0 0 0
0 0 0
0 0 0
0 0 0
0 0 0
0 0 0
0 0 0
0 0 0
0 0 0
0 0 0
0 0 0
0 0 0
0 0 0
0 0 0
0 0 0
0 0 0
0 0 0
0 0 0
0 0 0
0 0 0
0 0 0
0 0 0
0 0 0
0 0 0
0 0 0
0 0 0
0 0 0
0 0 0
0 0 0
0 0 0
0 0 0
0 0 0
0 0 0
0 0 0
0 0 0
0 0 0
0 0 0
0 0 0
0 0 0
0 0 0
0 0 0
0 0 0
0 0 0
0 0 0
0 0 0
0 0 0
0 0 0
0 0 0
0 0 0
0 0 0
0 0 0
0 0 0
0 0 0
0 0 0
0 0 0
0 0 0
0 0 0
0 0 0
0 0 0
0 0 0
0 0 0
0 0 0
0 0 0
0 0 0
0 0 0
0 0 0
0 0 0
0 0 0
0 0 0
0 0 0
0 0 0
0 0 0
0 0 0
0 0 0
0 0 0
0 0 0
0 0 0
0 0 0
0 0 0
0 0 0
0 0 0
0 0 0
0 0 0
0 0 0
0 0 0
0 0 0
0 0 0
0 0 0
0 0 0
0 0 0
0 0 0
0 0 0
0 0 0
0 0 0
0 0 0
0 0 0
0 0 0
0 0 0
0 0 0
0 0 0
0 0 0
0 0 0
0 0 0
0 0 0
0 0 0
0 0 0
0 0 0
0 0 0
0 0 0
0 0 0
0 0 0
0 0 0
0 0 0
0 0 0
0 0 0
0 0 0
0 0 0
0 0 0
0 0 0
0 0 0
0 0 0
0 0 0
0 0 0
0 0 0
0 0 0
0 0 0
0 0 0
0 0 0
0 0 0
0 0 0
0 0 0
0 0 0
0 0 0
0 0 0
0 0 0
0 0 0
0 0 0
0 0 0
0 0 0
0 0 0
0 0 0
0 0 0
0 0 0
0 0 0
0 0 0
0 0 0
0 0 0
0 0 0
0 0 0
0 0 0
0 0 0
0 0 0
0 0 0
0 0 0
0 0 0
0 0 0
0 0 0
0 0 0
0 0 0
0 0 0
0 0 0
0 0 0
0 0 0
0 0 0
0 0 0
0 0 0
0 0 0
0 0 0
0 0 0
0 0 0
0 0 0
0 0 0
0 0 0
0 0 0
0 0 0
0 0 0
0 0 0
0 0 0
0 0 0
0 0 0
0 0 0
0 0 0
0 0 0
0 0 0
0 0 0
0 0 0
0 0 0
0 0 0
0 0 0
0 0 0
0 0 0
0 0 0
0 0 0
0 0 0
0 0 0
0 0 0
0 0 0
0 0 0
0 0 0
0 0 0
0 0 0
0 0 0
0 0 0
0 0 0
0 0 0
0 0 0
0 0 0
0 0 0
0 0 0
0 0 0
0 0 0
0 0 0
0 0 0
0 0 0
0 0 0
0 0 0
0 0 0
0 0 0
0 0 0
0 0 0
0 0 0
0 0 0
0 0 0
0 0 0
0 0 0
0 0 0
0 0 0
0 0 0
0 0 0
0 0 0
0 0 0
0 0 0
0 0 0
0 0 0
0 0 0
0 0 0
0 0 0
0 0 0
0 0 0
0 0 0
0 0 0
0 0 0
0 0 0
0 0 0
0 0 0
0 0 0
0 0 0
0 0 0
0 0 0
0 0 0
0 0 0
0 0 0
0 0 0
0 0 0
0 0 0
0 0 0
0 0 0
0 0 0
0 0 0
0 0 0
0 0 0
0 0 0
0 0 0
0 0 0
0 0 0
0 0 0
0 0 0
0 0 0
0 0 0
0 0 0
0 0 0
0 0 0
0 0 0
0 0 0
0 0 0
0 0 0
0 0 0
0 0 0
0 0 0
0 0 0
0 0 0
0 0 0
0 0 0
0 0 0
0 0 0
0 0 0
0 0 0
0 0 0
0 0 0
0 0 0
0 0 0
0 0 0
0 0 0
0 0 0
0 0 0
0 0 0
0 0 0
0 0 0
0 0 0
0 0 0
0 0 0
0 0 0
0 0 0
0 0 0
0 0 0
0 0 0
0 0 0
0 0 0
0 0 0
0 0 0
0 0 0
0 0 0
0 0 0
0 0 0
0 0 0
0 0 0
0 0 0
0 0 0
0 0 0
0 0 0
0 0 0
0 0 0
0 0 0
0 0 0
0 0 0
0 0 0
0 0 0
0 0 0
0 0 0
0 0 0
0 0 0
0 0 0
0 0 0
0 0 0
0 0 0
0 0 0
0 0 0
0 0 0
0 0 0
0 0 0
0 0 0
0 0 0
0 0 0
0 0 0
0 0 0
0 0 0
0 0 0
0 0 0
0 0 0
0 0 0
0 0 0
0 0 0
0 0 0
0 0 0
0 0 0
0 0 0
0 0 0
0 0 0
0 0 0
0 0 0
0 0 0
0 0 0
0 0 0
0 0 0
0 0 0
0 0 0
0 0 0
0 0 0
0 0 0
0 0 0
0 0 0
0 0 0
0 0 0
0 0 0
0 0 0
0 0 0
0 0 0
0 0 0
0 0 0
0 0 0
0 0 0
0 0 0
0 0 0

CELL_DATA 452
SCALARS ELEMENT_ID int 1
LOOKUP_TABLE default
0
0
0
0
0
0
0
0
0
0
0
0
0
0
0
0
0
0
0
0
0
0
0
0
0
0
0
0
0
0
0
0
0
0
0
0
0
0
0
0
0
0
0
0
0
0
0
0
0
0
0
0
0
0
0
0
0
0
0
0
0
0
0
0
0
0
0
0
0
0
50
65
25
27
28
29
30
31
32
35
36
37
38
39
47
48
49
80
89
108
111
112
123
124
125
126
127
128
129
130
131
153
154
190
191
192
193
208
209
210
211
229
230
231
232
233
234
235
236
237
238
239
240
241
242
132
133
134
135
136
137
138
139
142
152
194
212
213
214
215
243
244
245
246
247
248
249
250
251
252
253
254
255
256
257
259
260
261
262
359
363
380
178
179
180
220
283
284
285
26
33
34
67
69
70
71
72
74
75
76
77
78
79
81
82
83
84
85
88
90
91
92
102
103
105
106
107
109
110
66
68
73
99
100
101
113
140
141
143
144
145
146
147
148
149
150
151
181
182
183
195
196
197
198
216
217
218
219
258
263
264
265
266
267
268
269
270
271
272
273
274
275
276
277
278
279
280
281
282
378
379
361
40
41
42
43
44
45
46
86
87
93
96
104
114
115
116
117
118
119
120
121
122
204
205
206
207
301
306
323
327
328
329
330
331
332
333
334
335
336
337
338
339
340
341
342
343
344
345
346
347
348
349
350
351
352
353
354
355
364
365
366
367
368
369
370
371
372
373
374
375
376
377
381
382
51
52
53
54
307
324
60
61
94
95
356
357
97
98
199
200
201
202
203
287
288
297
298
299
300
55
56
57
58
59
62
63
64
155
156
157
158
159
160
161
162
163
164
165
166
167
168
169
170
171
172
173
174
175
176
177
184
185
186
187
188
189
221
222
223
224
225
226
227
228
289
290
291
292
293
294
295
296
302
303
304
305
308
309
310
311
312
313
314
315
316
317
318
319
320
321
322
325
326
286
360
358
362
18
13
19
20
23
24
15
16
17
21
22
14
3
4
5
6
9
10
1
2
7
8
11
12

SCALARS PART_ID int 1
LOOKUP_TABLE default
1
1
1
1
1
1
1
1
1
1
1
1
1
1
1
1
1
1
1
1
1
1
1
1
1
1
1
1
1
1
1
1
1
1
1
1
1
1
1
1
1
1
1
1
1
1
1
1
1
1
1
1
1
1
1
1
1
1
1
1
1
1
1
1
1
1
1
1
1
1
2
2
2
2
2
2
2
2
2
2
2
2
2
2
2
2
2
2
2
2
2
2
2
2
2
2
2
2
2
2
2
2
2
2
2
2
2
2
2
2
2
2
2
2
2
2
2
2
2
2
2
2
2
2
2
2
2
2
2
2
2
2
2
2
2
2
2
2
2
2
2
2
2
2
2
2
2
2
2
2
2
2
2
2
2
2
2
2
2
2
2
2
2
2
2
2
2
2
2
2
2
2
2
2
2
2
2
2
2
2
2
2
2
2
2
2
2
2
2
2
2
2
2
2
2
2
2
2
2
2
2
2
2
2
2
2
2
2
2
2
2
2
2
2
2
2
2
2
2
2
2
2
2
2
2
2
2
2
2
2
2
2
2
2
2
2
2
2
2
2
2
2
2
2
2
2
2
2
2
2
2
2
2
2
2
2
2
2
2
2
2
2
2
2
2
2
2
2
2
2
2
2
2
2
2
2
2
2
2
2
2
2
2
2
2
2
2
2
2
2
2
2
2
2
2
2
2
2
2
2
2
2
2
2
2
2
2
2
2
2
2
2
2
2
2
2
2
2
2
2
2
2
2
2
2
2
2
2
2
2
2
2
2
2
2
2
2
2
2
2
2
2
2
2
2
2
2
2
2
2
2
2
2
2
2
2
2
2
2
2
2
2
2
2
2
2
2
2
2
2
2
2
2
2
2
2
2
2
2
2
2
2
2
2
2
2
2
2
2
2
2
2
2
2
2
2
2
2
2
2
2
2
2
2
2
2
2
2
2
2
2
2
2
2
2
2
2
2
2
2
2
2
2
2
2
2
2
2
1
1
1
1
1
1
1
1
1
1
1
1
1
1
1
1
1
1
1
1
1
1
1
1

SCALARS EROSION_STATUS int 1
LOOKUP_TABLE default
1
1
1
1
1
1
1
1
1
1
1
1
1
1
1
1
1
1
1
1
1
1
1
1
1
1
1
1
1
1
1
1
1
1
1
1
1
1
1
1
1
1
1
1
1
1
1
1
1
1
1
1
1
1
1
1
1
1
1
1
1
1
1
1
1
1
1
1
1
1
1
1
1
1
1
1
1
1
1
1
1
1
1
1
1
1
1
1
1
1
1
1
1
1
1
1
1
1
1
1
1
1
1
1
1
1
1
1
1
1
1
1
1
1
1
1
1
1
1
1
1
1
1
1
1
1
1
1
1
1
1
1
1
1
1
1
1
1
1
1
1
1
1
1
1
1
1
1
1
1
1
1
1
1
1
1
1
1
1
1
1
1
1
1
1
1
1
1
1
1
1
1
1
1
1
1
1
1
1
1
1
1
1
1
1
1
1
1
1
1
1
1
1
1
1
1
1
1
1
1
1
1
1
1
1
1
1
1
1
1
1
1
1
1
1
1
1
1
1
1
1
1
1
1
1
1
1
1
1
1
1
1
1
1
1
1
1
1
1
1
1
1
1
1
1
1
1
1
1
1
1
1
1
1
1
1
1
1
1
1
1
1
1
1
1
1
1
1
1
1
1
1
1
1
1
1
1
1
1
1
1
1
1
1
1
1
1
1
1
1
1
1
1
1
1
1
1
1
1
1
1
1
1
1
1
1
1
1
1
1
1
1
1
1
1
1
1
1
1
1
1
1
1
1
1
1
1
1
1
1
1
1
1
1
1
1
1
1
1
1
1
1
1
1
1
1
1
1
1
1
1
1
1
1
1
1
1
1
1
1
1
1
1
1
1
1
1
1
1
1
1
1
1
1
1
1
1
1
1
1
1
1
1
1
1
1
1
1
1
1
1
1
1
1
1
1
1
1
1
1
1
1
1
1
1
1
1
1
1
1
1
1
1
1
1
1
1
1
1
1
1
1
1
1
1
1
1
1
0
0
0
0
0
0
0
0
0
0
0
0
0
0
0
0
0
0
0
0
0
0
0
0

SCALARS 1DELEM_Specific_Energy float 1
LOOKUP_TABLE default
0
0
0
0
0
0
0
0
0
0
0
0
0
0
0
0
0
0
0
0
0
0
0
0
0
0
0
0
0
0
0
0
0
0
0
0
0
0
0
0
0
0
0
0
0
0
0
0
0
0
0
0
0
0
0
0
0
0
0
0
0
0
0
0
0
0
0
0
0
0
0
0
0
0
0
0
0
0
0
0
0
0
0
0
0
0
0
0
0
0
0
0
0
0
0
0
0
0
0
0
0
0
0
0
0
0
0
0
0
0
0
0
0
0
0
0
0
0
0
0
0
0
0
0
0
0
0
0
0
0
0
0
0
0
0
0
0
0
0
0
0
0
0
0
0
0
0
0
0
0
0
0
0
0
0
0
0
0
0
0
0
0
0
0
0
0
0
0
0
0
0
0
0
0
0
0
0
0
0
0
0
0
0
0
0
0
0
0
0
0
0
0
0
0
0
0
0
0
0
0
0
0
0
0
0
0
0
0
0
0
0
0
0
0
0
0
0
0
0
0
0
0
0
0
0
0
0
0
0
0
0
0
0
0
0
0
0
0
0
0
0
0
0
0
0
0
0
0
0
0
0
0
0
0
0
0
0
0
0
0
0
0
0
0
0
0
0
0
0
0
0
0
0
0
0
0
0
0
0
0
0
0
0
0
0
0
0
0
0
0
0
0
0
0
0
0
0
0
0
0
0
0
0
0
0
0
0
0
0
0
0
0
0
0
0
0
0
0
0
0
0
0
0
0
0
0
0
0
0
0
0
0
0
0
0
0
0
0
0
0
0
0
0
0
0
0
0
0
0
0
0
0
0
0
0
0
0
0
0
0
0
0
0
0
0
0
0
0
0
0
0
0
0
0
0
0
0
0
0
0
0
0
0
0
0
0
0
0
0
0
0
0
0
0
0
0
0
0
0
0
0
0
0
0
0
0
0
0
0
0
0
0
0
0
0
0
0
0
0
0
0
0
0
0
0
0
0
0
0
0
0
0
0
0
0
0
0
0
0
0
0
0
0
0
0
0
0
0
0
0
0
0

SCALARS 1DELEM_Von_Mises float 1
LOOKUP_TABLE default
0
0
0
0
0
0
0
0
0
0
0
0
0
0
0
0
0
0
0
0
0
0
0
0
0
0
0
0
0
0
0
0
0
0
0
0
0
0
0
0
0
0
0
0
0
0
0
0
0
0
0
0
0
0
0
0
0
0
0
0
0
0
0
0
0
0
0
0
0
0
0
0
0
0
0
0
0
0
0
0
0
0
0
0
0
0
0
0
0
0
0
0
0
0
0
0
0
0
0
0
0
0
0
0
0
0
0
0
0
0
0
0
0
0
0
0
0
0
0
0
0
0
0
0
0
0
0
0
0
0
0
0
0
0
0
0
0
0
0
0
0
0
0
0
0
0
0
0
0
0
0
0
0
0
0
0
0
0
0
0
0
0
0
0
0
0
0
0
0
0
0
0
0
0
0
0
0
0
0
0
0
0
0
0
0
0
0
0
0
0
0
0
0
0
0
0
0
0
0
0
0
0
0
0
0
0
0
0
0
0
0
0
0
0
0
0
0
0
0
0
0
0
0
0
0
0
0
0
0
0
0
0
0
0
0
0
0
0
0
0
0
0
0
0
0
0
0
0
0
0
0
0
0
0
0
0
0
0
0
0
0
0
0
0
0
0
0
0
0
0
0
0
0
0
0
0
0
0
0
0
0
0
0
0
0
0
0
0
0
0
0
0
0
0
0
0
0
0
0
0
0
0
0
0
0
0
0
0
0
0
0
0
0
0
0
0
0
0
0
0
0
0
0
0
0
0
0
0
0
0
0
0
0
0
0
0
0
0
0
0
0
0
0
0
0
0
0
0
0
0
0
0
0
0
0
0
0
0
0
0
0
0
0
0
0
0
0
0
0
0
0
0
0
0
0
0
0
0
0
0
0
0
0
0
0
0
0
0
0
0
0
0
0
0
0
0
0
0
0
0
0
0
0
0
0
0
0
0
0
0
0
0
0
0
0
0
0
0
0
0
0
0
0
0
0
0
0
0
0
0
0
0
0
0
0
0
0
0
0
0
0
0
0
0
0
0
0
0
0
0
0
0

SCALARS 2DELEM_Specific_Energy float 1
LOOKUP_TABLE default
0
0
0
0
0
0
0
0
0
0
0
0
0
0
0
0
0
0
0
0
0
0
0
0
0
0
0
0
0
0
0
0
0
0
0
0
0
0
0
0
0
0
0
0
0
0
0
0
0
0
0
0
0
0
0
0
0
0
0
0
0
0
0
0
0
0
0
0
0
0
3719.41
34551.7
21016.1
109671
105974
53969.9
46725.6
18293.7
2330.19
50836.8
62791.6
35038.7
29417.2
3524.47
17251.1
28839.6
19775.5
284.674