# vtk DataFile Version 3.0
vtk output
ASCII
DATASET UNSTRUCTURED_GRID
FIELD FieldData 2
TIME 1 1 double
0.00100028
CYCLE 1 1 int
0
POINTS 41 float
0.00627425 4.06207e-16 0.00498282
0.0562743 1.70076e-15 0.00498282
0.0562743 0.05 0.00498282
0.00627425 0.05 0.00498282
-10 10 0
10 10 0
10 -10 0
-10 -10 0
0.00382191 0 0.2995
0.0538219 0 0.2995
0.0538219 0.05 0.2995
0.00382191 0.05 0.2995
0.00630055 3.12188e-14 0.00499874
0.0563006 -1.95467e-14 0.00499874
0.0563006 0.05 0.00499874
0.00630055 0.05 0.00499874
-10 10 -1.38945e-07
10 10 -1.39664e-07
10 -10 -1.3897e-07
-10 -10 -1.38254e-07
0.00382191 0 0.2995
0.0538219 0 0.2995
0.0538219 0.05 0.2995
0.00382191 0.05 0.2995
0.00502451 -2.8504e-10 0.00466811
0.054787 7.03004e-11 0.00465635
0.054926 0.0499271 0.00464531
0.00478701 0.05 0.00465636
-10 10 -1.36813e-07
10 10 -1.37506e-07
10 -10 -1.36826e-07
-10 -10 -1.36133e-07
0.00382191 0 0.2995
0.0538219 0 0.2995
0.0538219 0.05 0.2995
0.00382191 0.05 0.2995
0 0 0.2995
-9.99849 -9.99849 0.2995
9.99849 -9.99849 0.2995
9.99849 9.99849 0.2995
-9.99849 9.99849 0.2995

CELLS 11 55
4 0 3 2 1
4 4 7 6 5
4 8 11 10 9
4 12 15 14 13
4 16 19 18 17
4 20 23 22 21
4 24 25 26 27
4 28 29 30 31
4 32 33 34 35
4 36 36 36 36
4 37 40 39 38

CELL_TYPES 11
9
9
9
9
9
9
9
9
9
9
9

POINT_DATA 41
SCALARS NODE_ID int 1
LOOKUP_TABLE default
31
32
33
34
51
52
53
54
71
72
73
74
105
106
107
108
125
126
127
128
145
146
147
148
179
180
181
182
199
200
201
202
219
220
221
222
0
0
0
0
0

CELL_DATA 11
SCALARS ELEMENT_ID int 1
LOOKUP_TABLE default
31
51
71
102
122
142
173
193
213
0
0

SCALARS PART_ID int 1
LOOKUP_TABLE default
1
2
3
4
5
6
7
8
9
1
1

SCALARS EROSION_STATUS int 1
LOOKUP_TABLE default
1
1
1
1
1
1
1
1
1
1
1

