# vtk DataFile Version 3.0
vtk output
ASCII
DATASET UNSTRUCTURED_GRID
FIELD FieldData 2
TIME 1 1 double
10.0019
CYCLE 1 1 int
0
POINTS 16 float
-0.00505754 -0.00505754 0
100.005 -0.00505754 0
100.005 100.005 0
-0.00505754 100.005 0
-0.00505754 -0.00505754 99.9797
100.005 -0.00505754 99.9797
100.005 100.005 99.9797
-0.00505754 100.005 99.9797
3.82896 3.82896 0
96.171 3.82896 0
96.171 96.171 0
3.82896 96.171 0
3.82896 3.82896 99.9797
96.171 3.82896 99.9797
96.171 96.171 99.9797
3.82896 96.171 99.9797

CELLS 2 18
8 0 1 2 3 4 5 6 7
8 8 9 10 11 12 13 14 15

CELL_TYPES 2
12
12

POINT_DATA 16
SCALARS NODE_ID int 1
LOOKUP_TABLE default
1
2
3
4
5
6
7
8
9
10
11
12
13
14
15
16

VECTORS Velocity float
-2.50037 -2.50037 0
2.50037 -2.50037 0
2.50037 2.50037 0
-2.50037 2.50037 0
-2.50037 -2.50037 -10
2.50037 -2.50037 -10
2.50037 2.50037 -10
-2.50037 2.50037 -10
-1.59819 -1.59819 0
1.59819 -1.59819 0
1.59819 1.59819 0
-1.59819 1.59819 0
-1.59819 -1.59819 -10
1.59819 -1.59819 -10
1.59819 1.59819 -10
-1.59819 1.59819 -10

VECTORS Acceleration float
-0.375187 -0.375187 0
0.375187 -0.375187 0
0.375187 0.375187 0
-0.375187 0.375187 0
-0.375187 -0.375187 0
0.375187 -0.375187 0
0.375187 0.375187 0
-0.375187 0.375187 0
-0.223395 -0.223395 0
0.223395 -0.223395 0
0.223395 0.223395 0
-0.223395 0.223395 0
-0.223395 -0.223395 0
0.223395 -0.223395 0
0.223395 0.223395 0
-0.223395 0.223395 0

VECTORS Internal_Forces float
-126.626 -126.626 -126.664
126.626 -126.626 -126.664
126.626 126.626 -126.664
-126.626 126.626 -126.664
-126.626 -126.626 126.664
126.626 -126.626 126.664
126.626 126.626 126.664
-126.626 126.626 126.664
-75.3958 -75.3958 -69.6362
75.3958 -75.3958 -69.6362
75.3958 75.3958 -69.6362
-75.3958 75.3958 -69.6362
-75.3958 -75.3958 69.6362
75.3958 -75.3958 69.6362
75.3958 75.3958 69.6362
-75.3958 75.3958 69.6362

CELL_DATA 2
SCALARS ELEMENT_ID int 1
LOOKUP_TABLE default
1
2

SCALARS PART_ID int 1
LOOKUP_TABLE default
1
2

SCALARS EROSION_STATUS int 1
LOOKUP_TABLE default
1
1

SCALARS 3DELEM_Pressure float 1
LOOKUP_TABLE default
0.049676
0

SCALARS 3DELEM_Stress_X_ float 1
LOOKUP_TABLE default
-0.049676
0

SCALARS 3DELEM_Stress_Y_ float 1
LOOKUP_TABLE default
-0.049676
0

SCALARS 3DELEM_Stress_Z_ float 1
LOOKUP_TABLE default
-0.049676
0

