# vtk DataFile Version 3.0
vtk output
ASCII
DATASET UNSTRUCTURED_GRID
FIELD FieldData 2
TIME 1 1 double
8.00141
CYCLE 1 1 int
0
POINTS 732 float
30 0 1.60056
30 30 1.60056
0 30 1.60056
0 0 1.60056
30 0 30
30 30 30
0 30 30
0 0 30
30 15 1.60056
15 0 1.60056
30.1717 -0.278583 15.6092
15.0163 30.0472 0.159072
30.0171 30.2592 15.2606
0 15 1.60056
0.0225042 30.2273 15.1798
-0.213019 -0.250117 15.6212
30 15 30
15.0032 -0.0582179 30.2644
15 30 30
0 15 30
14.9954 15.0335 0.346457
30.1593 15.0428 15.3082
14.9647 -0.142489 15.2647
15.0073 30.1983 15.1583
-0.153057 15.0757 15.3185
15 15 30
14.9884 15.0489 15.2143
30 7.5 1.60056
22.5 0 1.60056
30.3716 -0.3702 8.49159
30 22.5 1.60056
22.5163 30.0297 0.163744
30.1449 30.6531 8.37152
7.51634 30.0646 0.1544
0 22.5 1.60056
0.23765 30.385 7.75255
7.5 0 1.60056
0 7.5 1.60056
-0.430088 -0.343781 8.49191
30.0966 -0.142517 22.7295
30 7.5 30
22.5 0 30
30.0529 30.1169 22.6389
30 22.5 30
22.5 30 30
-0.0541159 30.1195 22.6367
7.5 30 30
0 22.5 30
-0.0150539 -0.18768 22.732
7.50319 -0.0597539 30.2836
0 7.5 30
22.4954 15.0229 0.354722
30.5395 14.9767 8.54455
14.9847 7.53427 0.45526
15.0097 -0.483173 8.42475
30.1695 7.40454 15.4206
22.5163 -0.188211 15.3948
15.0061 22.5327 0.237653
15.0118 30.1227 7.65869
30.086 22.6574 15.2295
22.5073 30.1808 15.163
7.49543 15.044 0.338191
-0.539683 15.006 8.57745
7.50734 30.2157 15.1536
-0.049892 22.7006 15.1889
7.46469 -0.144025 15.2839
-0.173472 7.42925 15.4518
30.0786 15.0293 22.5929
22.5 15 30
14.9839 -0.100353 22.7645
15 7.5 30
15.0003 30.1527 22.6523
15 22.5 30
-0.0830964 15.0422 22.587
7.5 15 30
14.9909 15.108 7.84564
22.5303 15.056 15.2142
14.9788 7.41946 15.2836
14.9938 22.6667 15.2027
7.45889 15.0642 15.2239
14.9936 15.012 22.5195
22.4847 7.52371 0.463525
30.5021 7.2838 8.56403
22.7156 -0.506813 8.48158
22.5061 22.5221 0.245918
30.576 22.717 8.50447
22.5118 30.1053 7.66336
7.50611 22.5432 0.229388
7.51184 30.1401 7.65402
-0.340688 22.8061 8.26412
7.48475 7.54483 0.446995
7.26326 -0.486404 8.49384
-0.527226 7.31027 8.57389
30.1101 7.46523 22.6304
22.4679 -0.103725 22.7153
22.5 7.5 30
30.0714 22.58 22.5894
22.5323 30.145 22.6481
22.5 22.5 30
7.4679 30.1454 22.6499
-0.0622183 22.5961 22.5712
7.5 22.5 30
7.48394 -0.101889 22.7838
-0.103412 7.45311 22.6471
7.5 7.5 30
22.4839 15.0893 7.89775
14.9864 7.57721 7.95833
22.5209 7.42785 15.2767
14.9947 22.6213 7.74268
22.5241 22.656 15.1979
7.51119 15.0958 7.89226
7.48453 22.6705 15.192
7.44381 7.41641 15.3127
22.5261 15.0135 22.531
14.9801 7.43324 22.6624
14.9955 22.5677 22.5515
7.46185 15.0234 22.532
7.46822 7.43314 22.6414
7.46676 22.5811 22.5521
22.5043 7.44539 22.5879
22.5276 22.5695 22.555
7.4682 7.55924 8.05936
7.52078 22.6253 7.75256
22.5062 7.54389 8.09633
22.4914 22.6087 7.77897
30 3.75 1.60056
26.25 0 1.60056
30.572 -0.563983 4.81319
30 26.25 1.60056
26.25 30 1.60056
30.6349 30.7164 4.81222
3.76635 30.0733 0.152064
0 26.25 1.60056
0.0523902 31.1398 4.52095
3.75 0 1.60056
0 3.75 1.60056
-0.592506 -0.561004 4.77486
30.121 -0.124981 26.3898
30 3.75 30
26.25 0 30
30.107 30.1151 26.3714
30 26.25 30
26.25 30 30
-0.0974651 30.1127 26.3672
3.75 30 30
0 26.25 30
-0.161992 -0.140069 26.3753
3.75 0 30
0 3.75 30
30 11.25 1.60056
30 18.75 1.60056
26.25 15 1.60056
30.8582 14.9557 4.98809
18.75 0 1.60056
11.25 0 1.60056
15 3.75 1.60056
14.9865 -0.77405 5.01053
30.3762 -0.414923 12.1543
30.1346 -0.256899 19.1327
30.1834 3.55192 15.5245
26.3529 -0.251971 15.5035
18.7663 30.0385 0.161408
11.2663 30.0559 0.156736
15.0076 26.2974 0.196843
15.0141 30.0849 3.90888
30.0512 30.5437 11.8349
30.0579 30.2087 18.9484
30.0572 26.4973 15.2253
26.2527 30.2116 15.2359
0 18.75 1.60056
0 11.25 1.60056
3.75 15 1.60056
-0.869014 14.9659 4.97867
0.111582 30.3838 11.4738
-0.0322982 30.2306 18.9128
3.75735 30.2244 15.1513
-0.0338482 26.5293 15.1403
-0.39825 -0.370704 12.1495
-0.101752 -0.25594 19.1769
3.63071 -0.243497 15.4935
-0.201294 3.56505 15.5256
30 11.25 30
30 18.75 30
30.0595 15.0147 26.3016
26.25 15 30
18.7532 -0.0574499 30.2547
11.2532 -0.0589859 30.274
14.9935 -0.0792857 26.5145
15.0023 3.69172 30.2433
18.75 30 30
11.25 30 30
15.0024 30.1252 26.336
15 26.25 30
0 18.75 30
0 11.25 30
-0.0611611 15.0204 26.2936
3.75 15 30
18.7454 15.0282 0.350589
14.9901 11.2839 0.400858
15.0008 18.7831 0.292055
11.2454 15.0388 0.342324
14.9914 15.0879 4.09606
30.321 15.0297 11.8729
30.1566 11.2099 15.3317
30.1158 18.8927 15.2593
30.1309 15.0523 18.9057
26.3449 15.0516 15.2573
14.9699 -0.361653 11.7493
18.7146 -0.141721 15.255
11.2147 -0.143257 15.2743
14.9743 -0.121421 19.0146
14.9638 3.60745 15.2436
15.0096 30.1605 11.4085
18.7573 30.1896 15.1606
11.2573 30.207 15.156
15.0011 30.2025 18.9317
14.9986 26.4485 15.1961
-0.30823 15.064 11.9028
-0.112859 18.9169 15.2432
-0.152023 11.2033 15.3608
-0.142391 15.0688 18.9114
3.64334 15.0632 15.2555
18.75 15 30
15 11.25 30
15 18.75 30
11.25 15 30
15.0065 15.0036 26.2576
14.9866 15.1124 11.5171
18.7762 15.056 15.1842
14.9792 11.2221 15.2352
14.9895 18.8739 15.2055
11.1937 15.0595 15.1861
14.9867 15.0028 18.8315
26.25 7.5 1.60056
30.7077 7.31115 4.96587
22.5 3.75 1.60056
22.6909 -0.69848 4.9748
30.414 3.33304 8.46623
26.6652 -0.429013 8.47044
26.25 22.5 1.60056
30.9227 22.6913 4.96731
22.5076 26.2799 0.201515
22.514 30.0675 3.91355
30.3887 26.8571 8.31003
26.2594 30.3579 8.00889
7.5076 26.3148 0.192171
7.51409 30.1024 3.90421
3.75 22.5 1.60056
-0.927898 22.7509 4.83802
3.76185 30.1489 7.65168
-0.241723 26.6875 7.79412
7.5 3.75 1.60056
7.28009 -0.701125 4.96032
3.75 7.5 1.60056
-0.722703 7.33503 4.94399
3.27472 -0.42055 8.43366
-0.478632 3.35728 8.45979
30.112 3.63297 22.681
26.2947 -0.153864 22.6977
30.0708 7.4805 26.3175
26.25 7.5 30
22.5144 -0.20888 26.4248
22.5 3.75 30
30.065 26.3895 22.6223
26.3153 30.129 22.6538
30.0666 22.5311 26.3003
26.25 22.5 30
22.5233 30.1285 26.3384
22.5 26.25 30
3.70144 30.1355 22.6509
-0.0535466 26.4092 22.6069
7.48338 30.1267 26.3348
7.5 26.25 30
-0.0573497 22.5328 26.2898
3.75 22.5 30
3.7453 -0.10614 22.7761
-0.0706799 3.60234 22.7116
7.49357 -0.0808217 26.5337
7.50237 3.69019 30.2626
-0.115557 7.50348 26.3065
3.75 7.5 30
22.4901 11.2733 0.409123
22.5007 18.7725 0.30032
22.4914 15.0773 4.10432
30.5074 11.162 8.53313
30.5473 18.8647 8.50007
26.5055 15.0199 8.18383
18.7347 7.52899 0.459393
11.2347 7.53955 0.451128
14.9807 7.58868 4.20486
18.8249 -0.495032 8.45109
11.1178 -0.504678 8.41228
14.9945 3.55872 8.16171
30.3312 7.31637 11.931
30.158 7.41964 19.0087
26.3546 7.42402 15.3588
22.6549 -0.339644 11.8967
22.4593 -0.182866 19.0285
22.5398 3.60627 15.3682
18.7561 22.5274 0.241785
11.2561 22.538 0.23352
15.002 22.5871 3.98726
18.7618 30.114 7.66103
11.2618 30.1314 7.65635
15.0031 26.3729 7.69646
30.2852 22.765 11.77
30.0857 22.6627 18.8969
26.3036 22.6494 15.1984
22.5095 30.1431 11.4132
22.5167 30.1866 18.9305
22.4986 26.431 15.2008
7.50077 18.7936 0.28379
7.49009 11.2944 0.392593
7.49137 15.0984 4.08779
-0.61638 18.881 8.50888
-0.55946 11.1681 8.5533
3.43951 15.0192 8.19789
7.50959 30.1779 11.4038
7.4815 30.2039 18.9303
7.49861 26.4659 15.1914
-0.178077 22.8086 11.6578
-0.0866641 22.6987 18.8752
3.68123 22.681 15.1589
7.29654 -0.386767 11.8538
7.47431 -0.122957 19.0339
7.46386 3.60592 15.2629
-0.343648 7.33443 11.9428
-0.154886 7.411 19.0468
3.63568 7.4247 15.3541
30.0944 11.2578 22.5988
30.0781 18.8032 22.5791
26.3212 15.0236 22.5638
22.5 11.25 30
22.5 18.75 30
22.5105 15.0044 26.2619
18.7339 -0.0995855 22.7549
11.2339 -0.101121 22.7742
14.9831 3.64959 22.7435
18.75 7.5 30
11.25 7.5 30
15.0099 7.43001 26.3444
18.7666 30.1503 22.661
11.237 30.1528 22.6628
15.0007 26.3783 22.5927
18.75 22.5 30
11.25 22.5 30
15.0043 22.5105 26.2591
-0.0694112 18.8144 22.569
-0.0919361 11.2545 22.6068
3.67839 15.0306 22.5546
7.5 18.75 30
7.5 11.25 30
7.49583 15.0026 26.2591
18.7502 15.1112 7.82246
14.9783 11.3609 7.89178
14.9902 18.8785 7.78626
11.2154 15.1219 7.81178
22.5651 15.0622 11.5423
22.5306 11.1977 15.2616
22.5297 18.8723 15.2017
22.5548 15.02 18.8629
14.9826 7.48435 11.5632
18.773 7.4234 15.2618
11.1891 7.41568 15.2575
14.9761 7.37488 18.9295
14.9938 22.6625 11.4654
18.7715 22.6608 15.172
11.219 22.6779 15.167
14.9928 22.6372 18.8705
7.42332 15.0765 11.5413
7.4561 18.8854 15.1896
7.44583 11.2074 15.2603
7.42758 15.0256 18.8634
18.7627 15.0136 22.52
14.9951 11.2084 22.5612
14.9994 18.7754 22.5351
11.2347 15.016 22.5189
22.4807 7.57812 4.21313
26.5466 7.36798 8.33253
22.6505 3.47526 8.30168
22.502 22.5765 3.99552
26.4946 22.6828 8.12865
22.5031 26.3555 7.70113
7.50205 22.5976 3.97899
7.5031 26.3903 7.69179
3.48537 22.6371 7.97673
7.4807 7.59923 4.1966
7.3118 3.48039 8.32391
3.40374 7.38483 8.32837
26.3295 7.46081 22.5968
22.5097 3.60962 22.7042
22.516 7.47999 26.2955
26.3199 22.5751 22.5715
22.5255 26.3789 22.6017
22.5111 22.5153 26.2645
7.47626 26.3808 22.5922
3.68516 22.5921 22.5548
7.49417 22.5136 26.2594
7.48312 3.64805 22.7627
3.67615 7.44571 22.6343
7.48784 7.45093 26.3165
22.4722 11.3065 7.91705
22.4767 18.8594 7.82572
11.1833 7.61011 7.89644
18.7726 7.60045 7.9091
22.5213 7.38835 18.9662
22.6075 7.4034 11.6375
11.24 22.637 7.72483
18.751 22.6176 7.73077
22.543 22.6365 18.8857
22.5436 22.663 11.4731
7.48537 11.3318 7.91455
7.50451 18.8793 7.81975
7.4471 22.6494 18.8788
7.47067 22.6772 11.4592
7.44809 7.37555 18.9739
7.37586 7.44339 11.6294
22.5293 11.2303 22.5589
22.5293 18.782 22.5453
11.2375 7.43391 22.6575
18.7501 7.43504 22.6137
11.2341 22.572 22.5465
18.7643 22.5673 22.5488
7.46781 11.2192 22.569
7.47098 18.7866 22.5447
26.25 3.75 1.60056
30.6121 3.46153 5.07369
26.5416 -0.607308 5.04506
26.25 26.25 1.60056
30.6729 26.7142 5.04969
26.3301 30.9422 4.78564
3.75761 26.3235 0.189835
3.7641 30.1111 3.90187
-0.746346 26.7445 4.9728
3.75 3.75 1.60056
3.43228 -0.596725 5.07344
-0.653554 3.46874 5.04084
30.0944 3.72959 26.3106
26.3079 -0.129169 26.3328
26.25 3.75 30
30.0846 26.2885 26.3062
26.2918 30.1246 26.3399
26.25 26.25 30
3.70514 30.1295 26.3416
-0.0781036 26.2889 26.2983
3.75 26.25 30
3.71679 -0.228113 26.4518
-0.128628 3.67855 26.3308
3.75 3.75 30
26.25 11.25 1.60056
[...]
POINT_DATA 732
SCALARS NODE_ID int 1
LOOKUP_TABLE default
1
2
3
4
5
6
7
8
9
10
11
12
13
14
15
16
17
18
19
20
21
22
23
24
25
26
27
28
29
30
31
32
33
34
35
36
37
38
39
40
41
42
43
44
45
46
47
48
49
50
51
52
53
54
55
56
57
58
59
60
61
62
63
64
65
66
67
68
69
70
71
72
73
74
75
76
77
78
79
80
81
82
83
84
85
86
87
88
89
90
91
92
93
94
95
96
97
98
99
100
101
102
103
104
105
106
107
108
109
110
111
112
113
114
115
116
117
118
119
120
121
122
123
124
125
126
127
128
129
130
131
132
133
134
135
136
137
138
139
140
141
142
143
144
145
146
147
148
149
150
151
152
153
154
155
156
157
158
159
160
161
162
163
164
165
166
167
168
169
170
171
172
173
174
175
176
177
178
179
180
181
182
183
184
185
186
187
188
189
190
191
192
193
194
195
196
197
198
199
200
201
202
203
204
205
206
207
208
209
210
211
212
213
214
215
216
217
218
219
220
221
222
223
224
225
226
227
228
229
230
231
232
233
234
235
236
237
238
239
240
241
242
243
244
245
246
247
248
249
250
251
252
253
254
255
256
257
258
259
260
261
262
263
264
265
266
267
268
269
270
271
272
273
274
275
276
277
278
279
280
281
282
283
284
285
286
287
288
289
290
291
292
293
294
295
296
297
298
299
300
301
302
303
304
305
306
307
308
309
310
311
312
313
314
315
316
317
318
319
320
321
322
323
324
325
326
327
328
329
330
331
332
333
334
335
336
337
338
339
340
341
342
343
344
345
346
347
348
349
350
351
352
353
354
355
356
357
358
359
360
361
362
363
364
365
366
367
368
369
370
371
372
373
374
375
376
377
378
379
380
381
382
383
384
385
386
387
388
389
390
391
392
393
394
395
396
397
398
399
400
401
402
403
404
405
406
407
408
409
410
411
412
413
414
415
416
417
418
419
420
421
422
423
424
425
426
427
428
429
430
431
432
433
434
435
436
437
438
439
440
441
442
443
444
445
446
447
448
449
450
451
452
453
454
455
456
457
458
459
460
461
462
463
464
465
466
467
468
469
470
471
472
473
474
475
476
477
478
479
480
481
482
483
484
485
486
487
488
489
490
491
492
493
494
495
496
497
498
499
500
501
502
503
504
505
506
507
508
509
510
511
512
513
514
515
516
517
518
519
520
521
522
523
524
525
526
527
528
529
530
531
532
533
534
535
536
537
538
539
540
541
542
543
544
545
546
547
548
549
550
551
552
553
554
555
556
557
558
559
560
561
562
563
564
565
566
567
568
569
570
571
572
573
574
575
576
577
578
579
580
581
582
583
584
585
586
587
588
589
590
591
592
593
594
595
596
597
598
599
600
601
602
603
604
605
606
607
608
609
610
611
612
613
614
615
616
617
618
619
620
621
622
623
624
625
626
627
628
629
630
631
632
633
634
635
636
637
638
639
640
641
642
643
644
645
646
647
648
649
650
651
652
653
654
655
656
657
658
659
660
661
662
663
664
665
666
667
668
669
670
671
672
673
674
675
676
677
678
679
680
681
682
683
684
685
686
687
688
689
690
691
692
693
694
695
696
697
698
699
700
701
702
703
704
705
706
707
708
709
710
711
712
713
714
715
716
717
718
719
720
721
722
723
724
725
726
727
728
729
730
731
732

VECTORS Velocity float
0 0 0.399965
0 0 0.399965
0 0 0.399965
0 0 0.399965
0 0 0
0 0 0
0 0 0
0 0 0
0 0 0.399965
0 0 0.399965
0.0458304 -0.0918812 0.199585
0.00814909 0.00159368 0.0584703
0.00365832 0.104645 0.0990302
0 0 0.399965
0.011101 0.0926358 0.0657081
-0.0563281 -0.083775 0.205227
0 0 0
-3.92389e-05 -0.029669 0.113602
0 0 0
0 0 0
0.000163306 0.000744207 0.139699
0.0646509 0.0139059 0.125623
-0.013371 -0.0636188 0.113827
0.00302514 0.076842 0.05771
-0.0602026 0.0254796 0.126257
0 0 0
-0.00322809 0.0168012 0.0886056
0 0 0.399965
0 0 0.399965
0.0814781 -0.0838746 0.268974
0 0 0.399965
0.00813523 -0.00365132 0.0611728
0.0447883 0.160683 0.243132
0.00816295 0.00683869 0.0557678
0 0 0.399965
0.0670917 0.118848 0.0856901
0 0 0.399965
0 0 0.399965
-0.102181 -0.0744367 0.268562
0.0415077 -0.0636338 0.09864
0 0 0
0 0 0
0.0209496 0.0526899 0.0571854
0 0 0
0 0 0
-0.0198186 0.0538304 0.0536246
0 0 0
0 0 0
-0.0120335 -0.0797428 0.0945782
-2.21309e-05 -0.0296249 0.120271
0 0 0
0.000153688 -0.00325984 0.143318
0.124638 -0.00713781 0.306486
-0.00393944 0.00137597 0.182877
0.00343508 -0.116308 0.266309
0.0607147 -0.0424059 0.161487
0.00897381 -0.0707318 0.155166
0.00426605 0.000112439 0.0965207
0.00558712 0.0392178 0.0580901
0.0381093 0.0633406 0.097279
0.00301128 0.071597 0.0604125
0.000172923 0.00474825 0.13608
-0.124294 0.00410584 0.313333
0.00303901 0.082087 0.0550075
-0.0225446 0.0793078 0.0776558
-0.0133539 -0.0635747 0.120496
-0.0593593 -0.0353856 0.17012
0.0383092 0.01236 0.0423783
0 0 0
-0.00670514 -0.0466439 0.113714
0 0 0
-0.000205813 0.0631064 0.0603039
0 0 0
-0.0386314 0.01742 0.037925
0 0 0
-0.00235682 0.0340163 0.138397
0.0161155 0.0185081 0.0902595
-0.00709343 -0.0386222 0.117644
-0.00111133 0.0639746 0.0797386
-0.0185247 0.0211537 0.0918711
-0.00240322 0.00422788 0.00717217
-0.00394906 -0.00262807 0.186496
0.109968 -0.0514681 0.304112
0.0499204 -0.119955 0.276793
0.00425644 -0.00389161 0.10014
0.144674 0.0535557 0.297225
0.00557325 0.0339728 0.0607926
0.00427567 0.00411649 0.0929018
0.00560098 0.0444628 0.0553876
-0.0846911 0.0877306 0.232737
-0.00392983 0.00538002 0.179258
-0.056742 -0.114887 0.277066
-0.119019 -0.0427873 0.305896
0.0511221 -0.0184062 0.0581453
-0.010993 -0.0514193 0.0949482
0 0 0
0.0317044 0.0367893 0.0368875
0.0127641 0.0605933 0.0581968
0 0 0
-0.012893 0.0595601 0.0581945
-0.0273737 0.0429948 0.0284254
0 0 0
-0.00668803 -0.0465998 0.120384
-0.045995 -0.0211579 0.0606973
0 0 0
-0.00524952 0.0265543 0.156021
-0.00407056 0.0221995 0.180777
0.0112724 -0.0346124 0.119205
-0.00033263 0.039192 0.0975115
0.0120277 0.0605216 0.0784778
0.00535985 0.0288651 0.152407
-0.0066712 0.0643479 0.0750167
-0.0218365 -0.0387203 0.129026
0.0141235 0.0049478 0.0140007
-0.00786193 -0.0317841 0.068091
-0.00162379 0.0310028 0.021073
-0.0182942 0.00889638 0.0140356
-0.0146919 -0.0304624 0.0583784
-0.0151456 0.0354206 0.0211315
0.00410238 -0.0281626 0.0398217
0.0134732 0.0312609 0.0222933
-0.0105979 0.0154375 0.20666
0.00947291 0.0394666 0.101777
0.00315418 0.0100317 0.219812
-0.00236767 0.033511 0.112008
0 0 0.399965
0 0 0.399965
0.12347 -0.119693 0.281587
0 0 0.399965
0 0 0.399965
0.149385 0.150618 0.257464
0.00816988 0.00946119 0.0544165
0 0 0.399965
0.0191359 0.287989 0.215685
0 0 0.399965
0 0 0.399965
-0.132762 -0.117073 0.267721
0.055681 -0.0586404 0.0596094
0 0 0
0 0 0
0.0442635 0.049068 0.0465257
0 0 0
0 0 0
-0.0392664 0.0453317 0.0436279
0 0 0
0 0 0
-0.0689467 -0.0617795 0.0547665
0 0 0
0 0 0
0 0 0.399965
0 0 0.399965
0 0 0.399965
0.15863 -0.0101127 0.312331
0 0 0.399965
0 0 0.399965
0 0 0.399965
-0.00350333 -0.148342 0.322375
0.0896578 -0.109326 0.252654
0.0513006 -0.100034 0.139538
0.0552458 -0.074989 0.185991
0.0340028 -0.0854546 0.179427
0.00814216 -0.00102882 0.0598215
0.00815602 0.00421618 0.057119
0.00550186 0.00178909 0.0772777
0.0068681 0.0204058 0.0582802
0.0141091 0.167967 0.181436
0.0220197 0.0862487 0.0750215
0.0249231 0.0972814 0.0895685
-0.000468964 0.0818815 0.0870429
0 0 0.399965
0 0 0.399965
0 0 0.399965
-0.161411 -0.00673503 0.30889
0.0373925 0.12585 0.0700242
-0.0115509 0.0885779 0.0577162
0.00304594 0.0847095 0.0536562
-0.013818 0.103344 0.0530693
-0.0981224 -0.0942863 0.251174
-0.032335 -0.100678 0.159245
-0.0396123 -0.0812139 0.173143
-0.0605829 -0.072002 0.190244
0 0 0
0 0 0
0.0310523 0.00727711 0.023423
0 0 0
-4.77929e-05 -0.029691 0.110267
-3.06849e-05 -0.0296469 0.116937
-0.00337219 -0.0381564 0.113658
-5.76797e-05 -0.0297166 0.105115
0 0 0
0 0 0
0.000895361 0.054218 0.0334836
0 0 0
0 0 0
0 0 0
-0.0295316 0.00867334 0.0202833
0 0 0
0.000158497 -0.00125782 0.141508
-0.00188807 0.00106009 0.161288
0.00221468 0.000428323 0.11811
0.000168114 0.00274623 0.137889
-0.00158624 0.0223379 0.139384
0.0945016 0.0057612 0.213717
0.0627204 -0.0197 0.134714
0.0503361 0.0538644 0.109007
0.0593127 0.0187796 0.0680856
0.0404162 0.0168424 0.10732
-0.0108113 -0.119508 0.171215
-0.0133796 -0.0636409 0.110492
-0.0133625 -0.0635968 0.117161
-0.0100381 -0.0551314 0.11377
-0.0133895 -0.0636665 0.10534
0.00430613 0.0580299 0.0579
0.00301821 0.0742195 0.0590612
0.00303208 0.0794645 0.0563587
0.000617753 0.0826053 0.0673313
0.000377915 0.0770374 0.0765174
-0.0891063 0.0166853 0.221535
-0.0467575 0.0618062 0.0995528
-0.0596561 -0.0221063 0.143704
-0.0598601 0.0242418 0.0682845
-0.0425768 0.0205515 0.105539
0 0 0
0 0 0
0 0 0
0 0 0
0.00282936 0.00163661 0.00224366
-0.0039045 0.0354618 0.111874
0.0122504 0.0190964 0.0804591
-0.00723872 -0.0152076 0.099076
-0.00296498 0.0445394 0.0843819
-0.0221436 0.0198131 0.0805335
-0.00479165 -0.0016181 0.0386084
0 0 0.399965
0.13477 -0.0376141 0.31386
0 0 0.399965
0.0376359 -0.139439 0.313201
0.0901071 -0.0963308 0.271064
0.094091 -0.0992276 0.27009
0 0 0.399965
0.180829 0.0431489 0.297964
0.005488 -0.00345592 0.0799802
0.00685424 0.0151608 0.0609827
0.0978227 0.157674 0.245937
0.0121822 0.104639 0.162856
0.00551572 0.00703409 0.0745752
0.00688197 0.0256508 0.0555777
0 0 0.399965
-0.191686 0.0481323 0.279342
0.00560791 0.0470853 0.0540364
-0.0599121 0.123376 0.11343
0 0 0.399965
-0.0478092 -0.140578 0.310301
0 0 0.399965
-0.14011 -0.0292512 0.305982
-0.11437 -0.096532 0.255329
-0.109791 -0.0887296 0.270381
0.049133 -0.0524694 0.0782721
0.022812 -0.0670023 0.0829134
0.036855 -0.00955402 0.0308009
0 0 0
0.00709092 -0.0935303 0.0695151
0 0 0
0.0270548 0.0599064 0.0471159
0.0251348 0.054892 0.0608204
0.0312902 0.0156988 0.0206308
0 0 0
0.0101609 0.0554861 0.0347783
0 0 0
-0.0194265 0.0558448 0.0583335
-0.0214017 0.0646948 0.039145
-0.00732591 0.0536299 0.0323438
0 0 0
-0.0255458 0.015703 0.016488
0 0 0
-0.0037763 -0.0503984 0.116898
-0.0317029 -0.0651027 0.0872026
-0.00335508 -0.0381123 0.120328
-4.05717e-05 -0.0296725 0.111785
-0.0526317 -0.00172368 0.0259322
0 0 0
-0.00189769 -0.00294396 0.164907
0.00220506 -0.00357572 0.121729
-0.00159586 0.0183339 0.143003
0.112935 -0.023596 0.301692
0.131602 0.0272792 0.297473
0.0672967 0.00470281 0.233025
-0.00394425 -0.000626049 0.184686
-0.00393463 0.003378 0.181067
-0.00568899 0.0229697 0.182562
0.0179671 -0.11672 0.272605
-0.0348947 -0.120644 0.257725
-0.00103985 -0.0511465 0.228325
0.0876737 -0.0608805 0.223439
0.0645066 -0.0386741 0.105686
0.0388342 -0.0345753 0.14526
0.0454704 -0.0982104 0.212862
-0.0146146 -0.0768062 0.115175
0.0146312 -0.0599307 0.150459
0.00426124 -0.00188958 0.0983302
0.00427086 0.00211446 0.0947113
0.00251651 0.0217062 0.0962058
0.00558018 0.0365953 0.0594414
0.00559405 0.0418403 0.0567389
0.00293989 0.0394132 0.0768975
0.0874236 0.0850272 0.183892
0.0382461 0.0665868 0.0611635
0.0223467 0.0596715 0.0826312
0.00429227 0.0527849 0.0606025
0.00737911 0.0766816 0.0683231
0.000364052 0.0717924 0.0792199
0.0022243 0.00443237 0.114491
-0.00187845 0.00506414 0.157669
-0.00157662 0.026342 0.135765
-0.146216 0.0336496 0.301146
-0.126378 -0.0207679 0.309018
-0.0811074 0.00517388 0.235448
0.00431999 0.0632749 0.0551975
-0.00704599 0.0816633 0.0655789
0.000391778 0.0822824 0.0738149
-0.0545394 0.100338 0.143298
-0.0351929 0.0772212 0.0515257
-0.0259834 0.0688454 0.0670469
-0.0632847 -0.11355 0.195717
-0.010021 -0.0550873 0.12044
-0.0133724 -0.0636224 0.112009
-0.0904686 -0.0559889 0.22926
-0.0596294 -0.0418863 0.119324
-0.0409169 -0.0360369 0.14436
0.0453499 0.00228208 0.0463399
0.0367599 0.0248936 0.0363691
0.0352955 0.00991072 0.0286775
0 0 0
0 0 0
0.00515917 0.00205703 0.00427137
-0.00671369 -0.046666 0.11038
-0.00669658 -0.0466219 0.117049
-0.00672358 -0.0466915 0.105228
0 0 0
0 0 0
0.00441404 -0.036143 0.043814
0.00649683 0.0622702 0.0640018
-0.00596758 0.0625149 0.0636588
0.000135285 0.0557138 0.0349094
0 0 0
0 0 0
0.00187235 0.00496109 0.00324524
-0.0318448 0.0282299 0.0315078
-0.0418328 -0.000254598 0.048373
-0.0339939 0.011829 0.0248873
0 0 0
0 0 0
-0.00192451 0.00090667 0.003903
0.00152546 0.0337301 0.13139
-0.00622012 0.0320578 0.159747
-0.00147427 0.0400744 0.117786
-0.0105553 0.0374338 0.12642
0.0249687 0.0195069 0.122532
0.0158275 -0.0214375 0.110548
0.0155098 0.0454686 0.0848738
0.0268939 0.00691065 0.0519721
-0.00586778 -0.0103767 0.136562
0.00944117 -0.0372094 0.114509
-0.0231307 -0.0399881 0.112225
-0.00902728 -0.0563515 0.0800508
-0.000794482 0.0575548 0.0889215
0.0101511 0.06242 0.0717595
-0.0114543 0.0675945 0.0688788
-0.00197663 0.0563325 0.05054
-0.0277567 0.0242446 0.12065
-0.0190491 0.0485815 0.0789352
-0.0230274 -0.018839 0.109245
-0.0314367 0.00810997 0.0515462
0.00650225 0.00512628 0.00849177
-0.00211384 -0.0224113 0.0276911
-0.000263749 0.0118023 0.0140714
-0.0076479 0.00570376 0.00843433
-0.00569861 0.0189657 0.186181
0.0720139 -0.0326185 0.262757
0.0341739 -0.070536 0.252156
0.00250689 0.0177021 0.0998247
0.0704527 0.0492292 0.213297
0.00292602 0.0341682 0.0796
0.00252612 0.0257102 0.0925868
0.00295375 0.0446583 0.074195
-0.0753547 0.0409045 0.170657
-0.00567937 0.0269738 0.178943
-0.0447046 -0.0682648 0.259785
-0.086569 -0.0273649 0.259652
0.0379578 -0.0193119 0.043998
0.00543649 -0.0618142 0.0853027
0.00758803 -0.0101583 0.0200099
0.031374 0.0336601 0.02977
0.0109982 0.055724 0.0395443
0.00562014 0.00737577 0.00544154
-0.0101742 0.0551903 0.0340446
-0.0280913 0.0392456 0.0232145
-0.00299558 0.00661524 0.00358908
-0.00670647 -0.0466474 0.111897
-0.0326053 -0.0267818 0.0595737
-0.00576056 -0.026695 0.0312145
-0.00774201 0.0141512 0.171793
-0.00784006 0.0328365 0.132442
-0.0203405 0.0294745 0.163643
0.00729198 0.025976 0.168771
0.011541 -0.0489487 0.0928137
0.0355889 -0.0376881 0.160134
-0.00157209 0.0430345 0.0910398
0.0025933 0.0375589 0.0941323
0.0194455 0.0562182 0.0573951
0.0166144 0.0585088 0.0929574
-0.0040769 0.0217601 0.170487
0.00457407 0.0390691 0.129151
-0.0208435 0.0594506 0.053048
-0.00925976 0.0621758 0.0861378
-0.0206632 -0.0547153 0.0964117
-0.0422771 -0.0246996 0.157657
0.0149816 -0.0106658 0.0264906
0.0150409 0.0150978 0.0200623
-0.00514301 -0.0314686 0.06944
0.000697462 -0.0308617 0.0514336
-0.00738204 0.0324189 0.0206971
0.0067184 0.0311516 0.0216778
-0.0155903 -0.016803 0.0313518
-0.0144849 0.0163308 0.0191673
0 0 0.399965
0.124124 -0.0548815 0.339468
0.0578372 -0.125519 0.32879
0 0 0.399965
0.139492 0.0944366 0.324442
0.0241634 0.221261 0.281954
0.00552265 0.0096566 0.0732239
0.0068889 0.0282733 0.0542265
-0.15519 0.12408 0.347091
0 0 0.399965
-0.0666731 -0.123016 0.338104
-0.136993 -0.0512041 0.325586
0.0453975 -0.0130818 0.0286485
0.0253575 -0.0609566 0.0386301
0 0 0
0.0357202 0.0191179 0.0223198
0.0172403 0.053643 0.0359922
0 0 0
-0.0183986 0.0537358 0.0343783
-0.0326164 0.0190896 0.0173978
0 0 0
-0.0173948 -0.0993979 0.0775994
-0.0571899 -0.0319083 0.0320687
0 0 0
0 0 0.399965
0.142963 -0.0190904 0.325336
0 0 0.399965
0.166288 0.00897249 0.31123
0.0528799 0.00211664 0.371593
0 0 0.399965
0.0136577 -0.148672 0.326363
0 0 0.399965
-0.0146374 -0.149531 0.333401
-0.00434158 -0.0281167 0.349824
0.0867912 -0.0716574 0.245013
0.0499684 -0.099969 0.224008
0.0585241 -0.0575129 0.12376
0.0113222 -0.0832485 0.139503
0.0401916 -0.0678182 0.16259
0.00549493 -0.000833414 0.0786289
0.00686117 0.0177833 0.0596314
0.00550879 0.00441159 0.0759264
0.00687503 0.0230283 0.056929
0.00422087 0.0206012 0.0770876
0.0603207 0.108813 0.163372
-0.0241943 0.103515 0.107175
0.029389 0.0660428 0.0569602
0.00932381 0.0787247 0.0730616
0.0164555 0.0785025 0.0784732
0 0 0.399965
-0.180862 0.00879281 0.307622
0 0 0.399965
-0.14937 -0.0187654 0.319069
-0.0637196 0.00387751 0.380392
0.00432693 0.0658974 0.0538463
-0.0363459 0.099384 0.0794069
-0.00718951 0.0814095 0.0693388
-0.0171549 0.0734492 0.0412079
0.00039871 0.0849049 0.0724636
-0.0739114 -0.0981281 0.219784
-0.0935568 -0.064342 0.24401
0.00272618 -0.0765938 0.126101
-0.0469487 -0.0595203 0.145198
-0.0460318 -0.0610748 0.165258
0.0366121 0.00252098 0.0239105
0 0 0
0.0293643 0.01035 0.0196509
0 0 0
0.00763691 0.00214455 0.00429281
-0.00338074 -0.0381785 0.110323
-6.62337e-05 -0.0297387 0.10178
-0.00336363 -0.0381344 0.116993
-4.91257e-05 -0.0296946 0.10845
-0.00339063 -0.0382041 0.105171
0.00251994 0.0531934 0.0315549
0 0 0
-0.00530916 0.0528239 0.0305008
0 0 0
-0.00194838 0.014569 0.00971848
-0.027707 0.0147079 0.0181543
0 0 0
-0.0363757 0.0048309 0.0265648
0 0 0
-0.0111208 0.00576174 0.00647104
-0.00189288 -0.000941932 0.163097
0.00220987 -0.0015737 0.119919
-0.00159105 0.0203359 0.141193
-0.00188326 0.00306211 0.159478
-0.00363761 0.0226538 0.160973
0.00221949 0.00243035 0.1163
0.000465133 0.0220221 0.117795
-0.00158143 0.02434 0.137574
0.0895908 -0.0228476 0.228462
0.0934834 0.0363202 0.212582
0.0221677 0.0128739 0.150804
0.0678175 -0.00349201 0.0848767
0.0417118 -0.0210884 0.121388
0.0527022 0.0413204 0.0643165
0.0353939 0.0481207 0.0903018
0.0387943 0.0135692 0.0581494
0.0235744 -0.11595 0.200353
-0.0239613 -0.116999 0.186854
-0.0104073 -0.029093 0.131448
-0.0100466 -0.0551534 0.110436
-0.013398 -0.0636885 0.102005
-0.0100295 -0.0551093 0.117105
-0.0133809 -0.0636444 0.108675
-0.0100565 -0.055179 0.105284
0.0042992 0.0554074 0.0592513
0.00431306 0.0606524 0.0565488
0.0016589 0.0582253 0.0767075
0.00607832 0.0804841 0.0632044
0.000370984 0.0744149 0.0778686
-0.00274206 0.0830057 0.0631574
0.000384847 0.0796599 0.0751661
0.000117231 0.0752947 0.0577381
-0.09183 0.0537923 0.200081
-0.0965559 -0.0168943 0.236941
-0.0283925 0.0177947 0.153113
-0.0467761 0.0509854 0.0587523
-0.0315979 0.0562767 0.0890005
-0.0638937 -0.00599557 0.0888146
-0.0437489 -0.0174392 0.130908
-0.0370948 0.0153871 0.0600548
0 0 0
0 0 0
-0.00119684 0.000224681 0.00145272
0 0 0
-0.00371141 0.00184822 -0.00220666
0 0 0
-0.002594 0.00230891 0.00105425
-0.00437841 0.00170169 0.00238934
-0.000114888 0.0300948 0.125219
-0.0063474 0.0137439 0.128592
-0.00356114 0.0470291 0.098738
-0.00840632 0.0321565 0.122975
0.0107746 -0.0187856 0.093027
0.0136637 0.0419151 0.0755345
0.00877124 0.000982921 0.0436395
-0.020322 -0.0172674 0.0961197
-0.00522545 -0.0271073 0.0571646
-0.0164445 0.0425039 0.0746463
-0.00147388 0.033288 0.035103
-0.0129667 0.000542578 0.0447734
0.0387964 -0.0210884 0.378291
0.0215292 -0.0326008 0.374638
0.0869497 -0.0875567 0.256019
0.0789518 0.0210926 0.372238
0.00420701 0.0153562 0.0797901
0.0720955 0.096096 0.16742
0.00423474 0.0258462 0.0743851
-0.0653063 0.0428981 0.328922
0.00296068 0.0472808 0.0728438
-0.0251388 -0.0300768 0.362434
-0.050152 -0.02246 0.386286
-0.0985821 -0.0825225 0.246389
0.0273906 -0.0584242 0.0690783
0.0160606 -0.00403863 0.00270394
0.00361535 -0.0203923 0.0228536
0.0254184 0.0569382 0.0486266
0.00925283 0.0101015 0.00601553
0.00599454 0.0157377 0.0103322
-0.0221125 0.0580733 0.0425437
-0.0083891 0.0168198 0.0117471
-0.0103695 0.0119267 0.00476698
-0.0256914 -0.0608442 0.101877
-0.00337352 -0.03816 0.111841
-0.0194771 -0.0114577 0.0223504
-0.00364723 0.0186498 0.164592
0.000455515 0.018018 0.121414
0.0648695 -0.015855 0.234115
0.0801522 0.0258458 0.216875
-0.0056938 0.0209677 0.184371
-0.00568418 0.0249717 0.180752
0.0160877 -0.0576388 0.232277
-0.0283092 -0.0528864 0.222037
0.0383765 -0.0507358 0.183833
0.0313188 -0.0389764 0.100258
0.0378223 -0.0507 0.174648
0.0027371 -0.0514162 0.0971209
0.0025117 0.0197042 0.0980153
0.00252132 0.0237082 0.0943963
0.00293296 0.0367907 0.0782488
0.00294682 0.0420358 0.0755463
0.0128796 0.0691899 0.108906
0.025127 0.0602293 0.061916
0.00164504 0.0529803 0.0794099
0.0128489 0.0685289 0.0602996
0.00047475 0.0260261 0.114176
-0.003628 0.0266579 0.157354
-0.0679431 0.0348957 0.209872
-0.0716737 -0.00887579 0.23749
0.00167276 0.0634703 0.074005
-0.00929533 0.0745409 0.0532073
-0.00665821 0.0768977 0.0973207
-0.0200517 0.0642272 0.0562324
-0.0579286 -0.0419004 0.15557
-0.0100394 -0.0551349 0.111953
-0.05067 -0.0443488 0.180935
-0.0235596 -0.0469581 0.110795
0.0365735 -0.00478247 0.0353064
0.032152 0.0213173 0.0280487
0.00245787 -0.000375956 0.000483572
0.00265868 0.00279887 0.00207012
-0.00673213 -0.0467136 0.101893
-0.00671503 -0.0466695 0.108562
-0.00231834 -0.027168 0.0282219
-0.0109297 -0.0346821 0.0444392
0.00447971 0.0553522 0.0360394
-0.00646316 0.0555216 0.0340471
-0.00047322 0.00456115 0.0023528
-0.00368202 0.00542973 0.00243781
-0.0321243 0.024894 0.0278497
-0.0403527 -0.00555521 0.0400381
-0.00710578 0.00536628 0.00322497
-0.00961111 0.00427982 0.00118839