# vtk DataFile Version 3.0
vtk output
ASCII
DATASET UNSTRUCTURED_GRID
FIELD FieldData 2
TIME 1 1 double
0
CYCLE 1 1 int
0
POINTS 40 float
0 0 25
0 0 20
0 0 15
0 0 10
0 0 5
0 0 0
5 0 0
10 0 0
15 0 0
20 0 0
25 0 0
25 0 5
25 0 10
25 0 15
25 0 20
25 0 25
20 0 25
15 0 25
10 0 25
5 0 25
20 0 10
15 0 10
10 0 10
5 0 10
15 0 5
20 0 5
10 0 5
5 0 5
15 0 20
15 0 15
20 0 20
20 0 15
5 0 20
10 0 20
5 0 15
10 0 15
12.5 2.82843 9.67157
12.5 5.65685 12.5
12.5 2.82843 15.3284
12.5 0 12.5

CELLS 26 130
4 21 24 25 20
4 20 25 11 12
4 24 8 9 25
4 25 9 10 11
4 12 13 31 20
4 21 29 35 22
4 17 28 30 16
4 16 30 14 15
4 20 31 29 21
4 31 30 28 29
4 13 14 30 31
4 18 33 28 17
4 29 28 33 35
4 23 34 2 3
4 22 35 34 23
4 0 1 32 19
4 19 32 33 18
4 34 32 1 2
4 35 33 32 34
4 3 4 27 23
4 23 27 26 22
4 4 5 6 27
4 27 6 7 26
4 22 26 24 21
4 26 7 8 24
4 36 37 38 39

CELL_TYPES 26
9
9
9
9
9
9
9
9
9
9
9
9
9
9
9
9
9
9
9
9
9
9
9
9
9
9

POINT_DATA 40
SCALARS NODE_ID int 1
LOOKUP_TABLE default
9
10
11
12
13
14
15
16
17
18
19
20
21
22
23
24
25
26
27
28
29
30
31
32
33
34
35
36
37
38
39
40
41
42
43
44
54
55
56
57

VECTORS Velocity float
0 0 0
0 0 0
0 0 0
0 0 0
0 0 0
0 0 0
0 0 0
0 0 0
0 0 0
0 0 0
0 0 0
0 0 0
0 0 0
0 0 0
0 0 0
0 0 0
0 0 0
0 0 0
0 0 0
0 0 0
0 0 0
0 0 0
0 0 0
0 0 0
0 0 0
0 0 0
0 0 0
0 0 0
0 0 0
0 0 0
0 0 0
0 0 0
0 0 0
0 0 0
0 0 0
0 0 0
0 0 0
0 0 0
0 0 0
0 0 0

VECTORS Contact_Forces float
0 0 0
0 0 0
0 0 0
0 0 0
0 0 0
0 0 0
0 0 0
0 0 0
0 0 0
0 0 0
0 0 0
0 0 0
0 0 0
0 0 0
0 0 0
0 0 0
0 0 0
0 0 0
0 0 0
0 0 0
0 0 0
0 0 0
0 0 0
0 0 0
0 0 0
0 0 0
0 0 0
0 0 0
0 0 0
0 0 0
0 0 0
0 0 0
0 0 0
0 0 0
0 0 0
0 0 0
0 0 0
0 0 0
0 0 0
0 0 0

VECTORS Contact_Pressure_/_Normal float
0 0 0
0 0 0
0 0 0
0 0 0
0 0 0
0 0 0
0 0 0
0 0 0
0 0 0
0 0 0
0 0 0
0 0 0
0 0 0
0 0 0
0 0 0
0 0 0
0 0 0
0 0 0
0 0 0
0 0 0
0 0 0
0 0 0
0 0 0
0 0 0
0 0 0
0 0 0
0 0 0
0 0 0
0 0 0
0 0 0
0 0 0
0 0 0
0 0 0
0 0 0
0 0 0
0 0 0
0 0 0
0 0 0
0 0 0
0 0 0

VECTORS Contact_Pressure_/_Tangent float
0 0 0
0 0 0
0 0 0
0 0 0
0 0 0
0 0 0
0 0 0
0 0 0
0 0 0
0 0 0
0 0 0
0 0 0
0 0 0
0 0 0
0 0 0
0 0 0
0 0 0
0 0 0
0 0 0
0 0 0
0 0 0
0 0 0
0 0 0
0 0 0
0 0 0
0 0 0
0 0 0
0 0 0
0 0 0
0 0 0
0 0 0
0 0 0
0 0 0
0 0 0
0 0 0
0 0 0
0 0 0
0 0 0
0 0 0
0 0 0

CELL_DATA 26
SCALARS ELEMENT_ID int 1
LOOKUP_TABLE default
1
2
3
4
15
24
11
12
13
14
16
19
25
20
22
17
18
21
23
7
8
9
10
5
6
28

SCALARS PART_ID int 1
LOOKUP_TABLE default
1
1
1
1
1
1
1
1
1
1
1
1
1
1
1
1
1
1
1
1
1
1
1
1
1
2

SCALARS EROSION_STATUS int 1
LOOKUP_TABLE default
1
1
1
1
1
1
1
1
1
1
1
1
1
1
1
1
1
1
1
1
1
1
1
1
1
1

SCALARS 2DELEM_Specific_Energy float 1
LOOKUP_TABLE default
0
0
0
0
0
0
0
0
0
0
0
0
0
0
0
0
0
0
0
0
0
0
0
0
0
0

