# vtk DataFile Version 3.0
vtk output
ASCII
DATASET UNSTRUCTURED_GRID
FIELD FieldData 2
TIME 1 1 double
0.500024
CYCLE 1 1 int
0
POINTS 18 float
0.000108244 0.000108244 -5.09871
99.9999 0.000108244 -5.09871
30 30 -5.0014
70 30 -5.0014
50 50 -5.0014
30 70 -5.0014
70 70 -5.0014
0.000108244 99.9999 -5.09871
99.9999 99.9999 -5.09871
0.000108244 0.000108244 0.0987109
99.9999 0.000108244 0.0987109
30 30 0.00140342
70 30 0.00140342
50 50 0.00140342
30 70 0.00140342
70 70 0.00140342
0.000108244 99.9999 0.0987109
99.9999 99.9999 0.0987109

CELLS 11 53
2 4 13
4 0 2 5 7
4 0 1 3 2
4 5 6 8 7
4 2 3 6 5
4 1 8 6 3
4 11 12 15 14
4 9 11 14 16
4 14 15 17 16
4 9 10 12 11
4 10 17 15 12

CELL_TYPES 11
3
9
9
9
9
9
9
9
9
9
9

POINT_DATA 18
SCALARS NODE_ID int 1
LOOKUP_TABLE default
1
2
3
4
5
6
7
8
9
11
12
13
14
15
16
17
18
19

CELL_DATA 11
SCALARS ELEMENT_ID int 1
LOOKUP_TABLE default
1
3
1
4
2
5
12
13
14
11
15

SCALARS PART_ID int 1
LOOKUP_TABLE default
3
1
1
1
1
1
2
2
2
2
2

SCALARS EROSION_STATUS int 1
LOOKUP_TABLE default
1
1
1
1
1
1
1
1
1
1
1

SCALARS 1DELEM_Plastic_Strain float 1
LOOKUP_TABLE default
0
0
0
0
0
0
0
0
0
0
0

SCALARS 1DELEM_Damage_1 float 1
LOOKUP_TABLE default
0.000399415
0
0
0
0
0
0
0
0
0
0

SCALARS 1DELEM_Damage_2 float 1
LOOKUP_TABLE default
1.085e-19
0
0
0
0
0
0
0
0
0
0

SCALARS 1DELEM_Damage_3 float 1
LOOKUP_TABLE default
7.75067e-20
0
0
0
0
0
0
0
0
0
0

SCALARS 2DELEM_Plastic_Strain float 1
LOOKUP_TABLE default
0
0
0
0
0
0
0
0
0
0
0

SCALARS 2DELEM_Damage_1 float 1
LOOKUP_TABLE default
0
0
0
0
0
0
0
0
0
0
0

SCALARS 2DELEM_Damage_2 float 1
LOOKUP_TABLE default
0
0
0
0
0
0
0
0
0
0
0

SCALARS 2DELEM_Damage_3 float 1
LOOKUP_TABLE default
0
0
0
0
0
0
0
0
0
0
0

SCALARS 2DELEM_Hourglass_Energy float 1
LOOKUP_TABLE default
0
0.000294522
0.000294522
0.000294522
5.91911e-30
0.000294522
2.10017e-29
0.000294522
0.000294522
0.000294522
0.000294522

