# vtk DataFile Version 3.0
vtk output
ASCII
DATASET UNSTRUCTURED_GRID
FIELD FieldData 2
TIME 1 1 double
40.0064
CYCLE 1 1 int
0
POINTS 607 float
-0.0705677 0.304719 -0.449761
20 20 -1.5
9.66721 19.6465 17.1893
186.854 2.42838 326.762
175.953 21.0897 308.825
167.056 20.8783 319.344
174.175 198.994 317.689
184.05 178.887 300.572
159.227 178.994 330.898
0.187158 199.175 -0.905379
20 180 -1.5
12.3089 180.17 14.8597
168.571 0.422306 95.6486
170.154 19.7425 95.5458
167.009 21.0718 95.6738
169.891 198.393 94.7652
171.445 179.037 94.7558
168.193 177.656 94.8034
150.507 0.764604 86.928
153.372 20.7238 82.7217
149.006 19.9166 92.5602
151.852 198.115 86.1687
154.604 178.065 81.9807
150.098 179.077 91.9539
152.867 0.738489 106.694
154.913 20.8634 108.94
151.578 20.0369 103.646
153.699 198.214 105.067
155.358 178.023 107.4
152.501 179.001 102.602
36.5569 1.3408 198.429
38.9959 20.899 194.531
33.4069 21.1383 201.434
38.9043 198.63 199.044
41.6066 179.426 193.488
33.1438 179.479 202.705
20.5274 1.22775 185.605
22.2275 21.871 185.301
19.6959 20.5825 185.478
23.6003 199.693 185.073
24.2567 179.093 184.834
21.9798 180.315 184.998
51.7671 1.86986 211.248
55.295 20.9949 206.61
47.7753 21.0259 215.512
53.5002 196.546 212.556
58.5047 179.023 204.461
45.6151 179.276 218.64
0 180 0
0 160 0
0 140 0
0 120 0
0 100 0
0 80 0
0 60 0
0 40 0
0 20 0
185.816 22.5813 326.223
184.137 42.4649 325.235
181.847 61.9388 323.835
179.853 81.2244 322.594
178.275 100.481 321.479
177.074 119.807 320.559
176.582 139.448 319.934
176.074 159.327 319.425
175.562 179.38 318.889
20 40 -1.5
20 60 -1.5
20 80 -1.5
20 100 -1.5
20 120 -1.5
20 140 -1.5
20 160 -1.5
183.249 159.05 300.71
182.566 139.095 300.772
182.033 119.286 300.99
181.268 99.6093 301.51
180.334 79.9783 302.498
179.218 60.3154 304.007
178.638 40.5728 305.762
10.0072 160.227 17.0109
8.84779 140.036 17.9558
8.49871 119.993 18.1803
8.71113 100.004 18.0675
8.63295 80.0107 18.1076
8.47616 60.0109 18.1897
8.71217 39.9877 18.0504
164.021 40.209 323.528
162.063 59.8689 326.222
160.576 79.711 328.049
159.714 99.5686 329.395
159.309 119.481 329.756
159.18 139.367 330.12
159.217 159.223 330.231
16.6685 2.65282 8.81511
32.8546 4.31843 17.7242
49.5254 4.65804 27.4156
66.1902 4.71491 37.3413
82.8332 4.39097 47.4285
99.414 3.74977 57.5531
116.242 2.91592 67.5277
133.138 1.89281 77.5717
137.954 20.4668 71.2356
121.935 20.3673 59.5018
105.957 20.3396 48.0769
89.5469 20.2518 37.0501
72.802 20.274 26.5867
55.7845 20.2718 16.4514
38.2996 20.2175 7.0666
26.4424 20.299 27.9113
43.1076 20.5516 37.939
59.8799 20.4652 48.0799
76.6739 20.2298 58.2036
93.7516 19.8811 68.1711
111.522 19.8644 77.2403
129.517 19.6998 85.7533
170.467 40.0261 95.1574
170.29 59.7927 94.8948
170.357 79.6556 94.6584
170.438 99.3745 94.4262
170.703 119.131 94.4817
170.937 138.902 94.4021
171.424 158.627 94.5739
134.595 197.062 76.6526
117.884 196.091 66.5055
101.225 195.433 56.4324
84.8007 195.189 46.0821
68.2295 195.236 35.8115
51.5242 195.976 25.7021
34.8807 196.533 16.047
18.1087 199.166 7.69813
168.479 158.761 94.4623
168.076 139.093 94.049
167.88 119.296 93.9665
167.722 99.337 94.0582
167.567 79.4565 94.2148
167.511 59.6835 94.6534
167.573 39.9773 95.1256
38.5068 179.574 7.14391
56.8846 179.339 15.5303
74.0823 179.154 25.6743
91.1919 179.099 35.857
107.71 178.914 46.8112
123.667 178.748 58.32
139.511 178.511 70.2134
130.689 179.454 85.1792
112.637 179.529 76.6741
95.0572 179.63 67.159
78.0801 179.464 56.817
61.7757 179.195 45.7454
45.0353 179.442 35.5622
29.237 179.386 24.0021
155.727 39.6348 80.7591
157.324 59.6276 78.965
158.314 79.4489 77.8906
158.541 99.4224 77.6994
158.718 119.339 77.6301
158.11 139.093 78.4947
156.881 159.194 80.0151
147.964 159.06 94.342
147.841 139.323 94.2042
147.753 119.364 93.7307
147.667 99.5152 93.496
147.457 79.65 93.8491
147.297 59.6898 94.3325
147.214 40.0065 94.278
66.6777 2.15848 224.438
81.4576 2.51338 237.683
96.363 2.80812 250.556
111.242 3.06064 263.348
126.139 3.10099 275.975
141.157 2.93697 288.403
156.22 2.42348 300.911
171.355 2.03866 313.783
162.397 20.4849 294.26
147.305 20.7233 281.453
131.836 21.1905 269.254
116.834 21.1481 256.616
101.742 21.0623 243.929
86.2049 21.1442 231.747
70.9711 21.0695 219.244
61.3098 20.7066 229.903
75.6343 20.6447 243.813
90.292 20.7488 257.22
105.027 20.7541 270.349
120.106 20.7663 283.259
135.799 20.9429 295.315
151.122 20.7894 307.7
171.264 179.084 315.381
156.183 181.862 303.039
141.113 183.691 290.571
126.012 185.86 277.863
111.138 187.885 265.019
96.5566 190.081 252.092
82.2702 192.039 239.084
67.998 194.635 225.897
75.5599 179.219 215.049
91.0653 178.718 227.116
106.816 178.618 238.89
122.071 178.476 251.116
137.5 178.59 263.154
153.144 178.997 275.048
168.889 179.286 287.341
155.689 40.0455 108.947
155.062 59.9662 107.993
154.865 79.8629 107.463
154.879 99.6204 107.101
154.875 119.263 106.768
154.767 139.116 106.471
156.122 159.036 107.64
143.25 179.376 318.459
128.077 179.369 305.293
113.201 179.399 291.855
98.5698 179.315 278.055
84.3111 179.349 264.075
70.8238 179.174 249.24
57.6142 179.344 234.41
148.908 159.184 98.7925
148.196 139.361 96.6696
147.911 119.413 95.7334
147.74 99.5391 95.4978
147.58 79.5948 95.8536
147.726 59.6471 97.3412
148.242 39.9304 99.7052
139.344 1.00142 120.715
120.125 0.935264 124.805
102.522 0.648356 134.365
84.9545 0.611451 143.838
68.0163 0.573895 154.199
50.5458 0.626019 163.722
31.5 0.820687 169.346
32.3179 20.9865 169.583
51.9314 19.9075 166.661
69.9555 20.0321 157.791
86.8082 20.398 147.201
103.772 20.6136 136.952
120.479 21.0286 126.323
140.214 20.4169 121.88
138.407 21.7434 118.986
118.752 20.3728 122.633
100.624 20.2492 130.903
82.9599 20.1682 140.277
66.5292 20.6088 151.613
49.5835 20.918 161.13
30.7724 20.5389 168.037
41.4248 40.9464 191.682
42.4363 60.5932 190.797
42.9147 80.3928 190.319
43.6564 100.103 189.335
43.9757 119.885 188.978
43.8011 139.737 189.654
42.9128 159.258 191.076
31.5258 199.828 167.287
50.3403 199.844 161.205
68.6972 199.689 153.123
86.1092 199.463 143.452
104.239 199.096 135.044
121.846 198.65 125.365
140.684 198.266 119.714
32.7289 160.096 202.226
34.4725 140.31 200.654
34.4878 120.429 200.583
34.2034 100.454 200.567
33.2721 80.4918 201.106
33.2409 60.5502 200.919
33.4606 40.5465 200.753
141.388 178.907 121.042
122.268 178.622 127.637
105.32 179.462 137.916
87.29 179.498 146.357
69.5941 180.09 155.781
51.628 180.397 164.292
32.2572 179.424 167.588
30.484 180.185 166.198
49.0783 179.795 157.842
67.2762 179.677 150.838
84.2885 179.725 140.48
102.229 179.374 131.688
119.8 179.294 122.318
139.244 177.577 117.97
22.6726 41.3108 184.887
22.8668 61.0504 184.71
23.45 80.7617 184.455
23.8646 100.47 184.021
24.1658 120.049 184.043
24.0551 139.496 184.224
24.2656 159.377 184.559
21.8807 160.421 184.571
21.7507 140.443 184.523
21.656 120.498 184.432
21.436 100.629 184.542
20.9726 80.6729 184.647
20.4871 60.5969 184.939
20.2148 40.5537 185.062
58.0928 40.3557 203.148
60.0042 60.3423 200.909
60.8412 80.1388 200.08
61.8939 99.9265 198.554
62.2526 119.782 198.205
61.7884 139.598 199.278
60.5661 159.538 201.382
44.3114 159.567 219.418
46.8988 140.188 217.192
46.7403 120.244 217.037
46.2871 100.298 217.204
45.734 80.3697 217.412
46.3825 60.4472 216.807
47.5941 40.8493 215.948
60.412 40.7159 231.017
74.0444 40.5585 245.456
88.2194 40.5109 259.362
102.52 40.4189 273.233
117.316 40.2883 286.543
132.963 40.37 298.83
147.483 39.9477 312.437
58.8241 60.4405 232.585
71.2827 60.2097 248.172
85.0822 60.062 262.711
99.5793 59.9067 276.521
114.664 59.8474 289.782
130.706 59.9582 301.678
145.068 59.6412 315.544
57.8237 80.224 233.457
70.5982 80.1511 249.02
83.9595 79.9104 264.013
98.375 79.7715 278.036
113.172 79.6606 291.515
129.217 79.778 303.545
143.828 79.5593 317.272
57.8569 100.159 233.588
71.0141 99.9644 248.822
83.8621 99.8431 264.38
97.8746 99.6924 278.681
112.075 99.5924 292.858
127.897 99.5656 305.175
142.668 99.5107 318.693
58.4421 120.061 233.381
71.5935 119.805 248.598
84.1472 119.716 264.177
98.4165 119.673 278.345
112.705 119.609 292.228
128.02 119.515 305.066
142.778 119.48 318.651
58.4641 139.855 233.693
71.2266 139.798 249.024
83.63 139.626 264.799
97.7364 139.625 278.979
112.151 139.593 293.005
127.254 139.517 306.088
142.405 139.416 319.102
55.6639 159.395 235.861
68.8184 159.51 251.183
82.3828 159.51 265.975
97.2159 159.535 279.605
111.956 159.523 293.196
126.975 159.531 306.543
142.509 159.408 319.193
136.711 158.342 113.752
135.042 138.631 111.758
133.879 119.156 110.021
133.342 99.6374 109.312
133.617 80.2615 110.153
134.762 60.8972 112.443
136.386 41.062 114.964
117.401 159.637 118.287
115.579 139.755 115.706
114.237 119.8 113.718
113.629 99.8261 112.822
113.956 79.7766 113.682
115.263 59.7972 116.089
116.853 40.0277 118.862
100.546 159.678 129.011
98.7144 139.905 126.14
97.3958 119.895 124.388
96.3504 99.9063 122.909
97.0945 79.9022 124.217
97.8126 59.8397 125.583
99.0124 39.9266 127.965
83.7542 159.598 139.756
82.4567 139.821 137.751
81.642 119.893 136.483
80.4308 99.9789 135.158
81.0633 80.0689 136.05
81.2145 60.1124 136.686
82.0852 40.196 138.49
67.3054 159.661 150.867
66.1419 139.741 149.319
65.1762 119.977 148.092
64.6167 100.109 147.339
65.069 80.2075 148.335
65.3904 60.3336 148.871
66.21 40.5878 150.293
48.4756 160.065 157.894
47.6766 140.288 157.127
46.8233 120.227 156.117
46.6478 100.201 156.129
47.3589 80.2545 157.682
47.9606 60.2582 158.825
48.8647 40.547 160.161
30.2999 160.542 166.544
29.8296 140.478 166.162
29.6037 120.46 166.099
29.3464 100.356 166.126
29.6465 80.2388 166.753
29.8428 60.2539 167.2
30.247 40.1687 167.975
77.9662 159.562 211.069
93.9269 159.308 222.981
109.919 159.227 234.636
124.974 158.971 247.485
139.904 158.928 260.44
156.094 159.366 271.853
170.887 159.38 285.032
79.276 139.664 208.877
95.7132 139.489 220.205
112.146 139.449 231.587
127.101 139.229 244.798
141.613 139.036 258.54
157.95 139.32 269.886
172.052 139.373 283.835
80.0842 119.668 207.45
96.4895 119.576 218.947
112.922 119.446 230.39
128.159 119.308 243.363
142.912 119.16 256.929
159.161 119.282 268.634
[...]
POINT_DATA 607
SCALARS NODE_ID int 1
LOOKUP_TABLE default
1
2
3
4
5
6
7
8
9
10
11
12
13
14
15
16
17
18
19
20
21
22
23
24
25
26
27
28
29
30
31
32
33
34
35
36
37
38
39
40
41
42
43
44
45
46
47
48
49
50
51
52
53
54
55
56
57
58
59
60
61
62
63
64
65
66
67
68
69
70
71
72
73
74
75
76
77
78
79
80
81
82
83
84
85
86
87
88
89
90
91
92
93
94
95
96
97
98
99
100
101
102
103
104
105
106
107
108
109
110
111
112
113
114
115
116
117
118
119
120
121
122
123
124
125
126
127
128
129
130
131
132
133
134
135
136
137
138
139
140
141
142
143
144
145
146
147
148
149
150
151
152
153
154
155
156
157
158
159
160
161
162
163
164
165
166
167
168
169
170
171
172
173
174
175
176
177
178
179
180
181
182
183
184
185
186
187
188
189
190
191
192
193
194
195
196
197
198
199
200
201
202
203
204
205
206
207
208
209
210
211
212
213
214
215
216
217
218
219
220
221
222
223
224
225
226
227
228
229
230
231
232
233
234
235
236
237
238
239
240
241
242
243
244
245
246
247
248
249
250
251
252
253
254
255
256
257
258
259
260
261
262
263
264
265
266
267
268
269
270
271
272
273
274
275
276
277
278
279
280
281
282
283
284
285
286
287
288
289
290
291
292
293
294
295
296
297
298
299
300
301
302
303
304
305
306
307
308
309
310
311
312
313
314
315
316
317
318
319
320
321
322
323
324
325
326
327
328
329
330
331
332
333
334
335
336
337
338
339
340
341
342
343
344
345
346
347
348
349
350
351
352
353
354
355
356
357
358
359
360
361
362
363
364
365
366
367
368
369
370
371
372
373
374
375
376
377
378
379
380
381
382
383
384
385
386
387
388
389
390
391
392
393
394
395
396
397
398
399
400
401
402
403
404
405
406
407
408
409
410
411
412
413
414
415
416
417
418
419
420
421
422
423
424
425
426
427
428
429
430
431
432
433
434
435
436
437
438
439
440
441
442
443
444
445
446
447
448
449
450
451
452
453
454
455
456
457
458
459
460
461
462
463
464
465
466
467
468
469
470
471
472
473
474
475
476
477
478
479
480
481
482
483
484
485
486
487
488
489
490
491
492
493
494
495
496
497
498
499
500
501
502
503
504
505
506
507
508
509
510
511
512
513
514
515
516
517
518
519
520
521
522
523
524
525
526
527
528
529
530
531
532
533
534
535
536
537
538
539
540
541
542
543
544
545
546
547
548
549
550
551
552
553
554
555
556
557
558
559
560
561
562
563
564
565
566
567
568
569
570
571
572
573
574
575
576
577
578
579
580
581
582
583
584
585
586
587
588
589
590
591
592
593
594
595
596
597
598
599
600
601
602
0
0
0
0
0

SCALARS Time_Step float 1
LOOKUP_TABLE default
0.0149702
0.0183294
0.0212725
0.0268033
0.0267459
0.0267283
0.0149856
0.0214431
0.0214282
0.0258268
0.0243845
0.0260654
0.0249176
0.0188863
0.0180873
0.0249524
0.0188152
0.0180857
0.0259334
0.0255099
0.0258225
0.0259365
0.0254304
0.0258863
0.0258189
0.0251371
0.0252592
0.0258195
0.0249281
0.0253315
0.0265243
0.0265769
0.0258023
0.0265752
0.0266769
0.0261622
0.025359
0.0184841
0.0188383
0.0255831
0.0203931
0.020356
0.0269067
0.0268599
0.026745
0.0268777
0.0268024
0.0267153
0.0211919
0.0204687
0.0205431
0.0205773
0.0205772
0.0205782
0.0205783
0.0205355
0.0221978
0.0267904
0.0266523
0.0264476
0.0263153
0.0262815
0.0264433
0.0266973
0.0267356
0.0234652
0.0205432
0.0205705
0.0205714
0.0205726
0.0205704
0.0205675
0.0205088
0.0267716
0.0267344
0.0265184
0.0264002
0.0264491
0.0265515
0.0266676
0.026401
0.0267355
0.0268811
0.0268915
0.0268928
0.0268591
0.0267314
0.0266971
0.0266161
0.0265451
0.0265383
0.0266365
0.0267418
0.0266929
0.0229757
0.0258407
0.0263675
0.0264328
0.0264219
0.0264519
0.0265814
0.0264416
0.0263365
0.0265605
0.0265468
0.0265526
0.0265727
0.0265539
0.0262381
0.0262365
0.0264661
0.026515
0.0265223
0.0265858
0.026675
0.0264803
0.0122104
0.0149952
0.0234859
0.0157145
0.0234735
0.0209936
0.014904
0.0263529
0.0264642
0.0263724
0.026409
0.0265001
0.0263913
0.0259605
0.0257408
0.0143426
0.0206136
0.0232056
0.0152531
0.0232821
0.0144955
0.0116942
0.0261194
0.0264583
0.0266125
0.0265856
0.0265262
0.0265295
0.0262914
0.0264696
0.0266001
0.0265668
0.0265542
0.0265595
0.0264882
0.0262074
0.0239266
0.0262399
0.0263216
0.0244971
0.0262777
0.026165
0.0257866
0.0262138
0.0266842
0.0207206
0.0162796
0.0268747
0.0266828
0.0261634
0.0267408
0.0266919
0.0266383
0.0265721
0.0265109
0.0265161
0.0266051
0.0267371
0.0266552
0.0265694
0.0265556
0.0265863
0.0266356
0.0266518
0.026719
0.0267643
0.0267597
0.0266996
0.0266559
0.0266441
0.0266187
0.0266227
0.0233777
0.0264632
0.0265464
0.0266407
0.0265658
0.02643
0.0264436
0.0266102
0.0266106
0.0265311
0.02651
0.02654
0.026582
0.0265689
0.0265614
0.0238271
0.0242898
0.0267355
0.0266347
0.0266085
0.0260625
0.0236244
0.0265903
0.02669
0.0267396
0.0266688
0.0265672
0.0265594
0.0266662
0.02585
0.0265335
0.0205367
0.0161289
0.0265949
0.0265728
0.0258589
0.0264087
0.0265075
0.026709
0.0267996
0.0265772
0.0264703
0.0261124
0.0202692
0.0265897
0.0266933
0.0267807
0.0266897
0.0265112
0.0263483
0.0263441
0.0266293
0.026788
0.0267939
0.026516
0.0260588
0.020465
0.0267161
0.0268101
0.0267985
0.026731
0.0266705
0.0266579
0.0266992
0.0261651
0.0265404
0.0266354
0.0268043
0.0267674
0.0265471
0.0263654
0.0261911
0.0261799
0.0267855
0.0268327
0.0268477
0.0262011
0.0258773
0.0261769
0.0263727
0.0266309
0.0267056
0.0267112
0.0267092
0.020333
0.0205573
0.025969
0.0265691
0.0268257
0.0267854
0.0266559
0.0263317
0.0203826
0.0174124
0.0267312
0.0266599
0.0265023
0.0188371
0.0228979
0.0233561
0.0191998
0.0263762
0.0267888
0.0266063
0.017735
0.020679
0.0267315
0.0267587
0.0268141
0.0267719
0.0267772
0.0267275
0.0266937
0.0265491
0.0266231
0.0267662
0.0268305
0.0268034
0.0266646
0.0265827
0.0267591
0.026781
0.0267586
0.0267731
0.0268055
0.0267769
0.0267375
0.0267321
0.0267735
0.0267928
0.0268206
0.026844
0.0268585
0.0268311
0.0267355
0.0267227
0.0267842
0.0268325
0.0268338
0.0268283
0.0268199
0.0267556
0.0267055
0.0267552
0.0268097
0.0268197
0.0268193
0.0268217
0.0267165
0.0267483
0.0267889
0.026802
0.0268434
0.0268615
0.0268423
0.0266723
0.0267764
0.026826
0.0268173
0.0268377
0.0268603
0.0268271
0.0266994
0.0267635
0.0267897
0.0267916
0.026802
0.0268231
0.0267583
0.0264616
0.0265278
0.0264902
0.0263962
0.0263867
0.0265013
0.0264646
0.0267678
0.026684
0.0266217
0.0265792
0.0265535
0.0266733
0.0267668
0.0267932
0.0267498
0.0267544
0.0267862
0.026785
0.0267827
0.0268041
0.026806
0.0267755
0.0267421
0.0267909
0.0268132
0.0268012
0.0267753
0.0266684
0.0267135
0.0267394
0.0268102
0.0268005
0.0267643
0.0266656
0.0260856
0.0267002
0.0267625
0.0267998
0.0268014
0.0267379
0.0256037
0.0229777
0.0265053
0.0267927
0.0267713
0.0267857
0.0260685
0.0209411
0.0267041
0.0266412
0.0266019
0.0265936
0.026624
0.0266576
0.0267249
0.0268032
0.0267933
0.0267588
0.0267715
0.0267521
0.0267093
0.0267293
0.0268106
0.0268764
0.0268776
0.0268484
0.0267842
0.0267572
0.0266777
0.0268239
0.0268712
0.0268804
0.0268301
0.0267754
0.026782
0.026645
0.0268186
0.0268372
0.0268344
0.0268216
0.0268062
0.0267612
0.0266449
0.0267572
0.0267604
0.0267152
0.0267182
0.0267393
0.0267263
0.0266767
0.0267092
0.0266783
0.0266401
0.0266194
0.0266405
0.026676
0.026688
0.0228266
0.0265224
0.0266107
0.0266843
0.026726
0.0265974
0.020432
0.0266516
0.0266615
0.0267145
0.0267012
0.0267064
0.026685
0.0266426
0.0266844
0.0267023
0.0267244
0.0267125
0.0266763
0.0266438
0.0266628
0.0267109
0.0267426
0.0267776
0.0268092
0.0267388
0.026708
0.026765
0.0266389
0.0267331
0.0266981
0.0267403
0.0267428
0.0267419
0.026735
0.0264231
0.0265952
0.0265832
0.0266555
0.0267042
0.0266906
0.0265734
0.0261634
0.0264628
0.0265643
0.026653
0.0267247
0.0266224
0.0263348
0.0264389
0.0266969
0.0268636
0.0268703
0.0268657
0.026821
0.0266826
0.0265557
0.0266927
0.0268434
0.0268657
0.0268585
0.0268001
0.0266382
0.0266582
0.0267635
0.0268293
0.0268573
0.0268582
0.0267804
0.0266426
0.0267584
0.0268383
0.0268155
0.0267765
0.0268254
0.0267965
0.0266676
0.0267902
0.0267491
0.0266959
0.026679
0.0266992
0.026724
0.0267359
0.0266628
0.0265588
0.0266136
0.0266775
0.0266125
0.0265449
0.0266614
0.0264045
0.0265309
0.026715
0.0267517
0.0266945
0.0264801
0.0263433
0.0264574
0.0265573
0.0267125
0.0268263
0.0267632
0.0266082
0.0264477
0.0266348
0.0266375
0.026647
0.0267331
0.0267026
0.0266712
0.0266077
0.0267289
0.0267363
0.0266147
0.026619
0.0267201
0.026742
0.026672
0.0267719
0.0266937
0.0265694
0.0266144
0.0267467
0.0267391
0.0266932
0.0266794
0.0265402
0.0265779
0.0267374
0.0267529
0.0267316
0.0267415
0.0265201
0.0265698
0.0267637
0.0268611
0.0268349
0.0267927
0.0267798
0.0265395
0.0267802
0.0268893
0.0268938
0.0268993
0.0268777
0.0267863
0
0
0
0
0

SCALARS Mass_Change float 1
LOOKUP_TABLE default
0
0
0
0
0
0
0
0
0
0
0
0
0
0
0
0
0
0
0
0
0
0
0
0
0
0
0
0
0
0
0
0
0
0
0
0
0
0
0
0
0
0
0
0
0
0
0
0
0
0
0
0
0
0
0
0
0
0
0
0
0
0
0
0
0
0
0
0
0
0
0
0
0
0
0
0
0
0
0
0
0
0
0
0
0
0
0
0
0
0
0
0
0
0
0
0
0
0
0
0
0
0
0
0
0
0
0
0
0
0
0
0
0
0
0
0
0
0
0
0
0
0
0
0
0
0
0
0
0
0
0
0
0
0
0
0
0
0
0
0
0
0
0
0
0
0
0
0
0
0
0
0
0
0
0
0
0
0
0
0
0
0
0
0
0
0
0
0
0
0
0
0
0
0
0
0
0
0
0
0
0
0
0
0
0
0
0
0
0
0
0
0
0
0
0
0
0
0
0
0
0
0
0
0
0
0
0
0
0
0
0
0
0
0
0
0
0
0
0
0
0
0
0
0
0
0
0
0
0
0
0
0
0
0
0
0
0
0
0
0
0
0
0
0
0
0
0
0
0
0
0
0
0
0
0
0
0
0
0
0
0
0
0
0
0
0
0
0
0
0
0
0
0
0
0
0
0
0
0
0
0
0
0
0
0
0
0
0
0
0
0
0
0
0
0
0
0
0
0
0
0
0
0
0
0
0
0
0
0
0
0
0
0
0
0
0
0
0
0
0
0
0
0
0
0
0
0
0
0
0
0
0
0
0
0
0
0
0
0
0
0
0
0
0
0
0
0
0
0
0
0
0
0
0
0
0
0
0
0
0
0
0
0
0
0
0
0
0
0
0
0
0
0
0
0
0
0
0
0
0
0
0
0
0
0
0
0
0
0
0
0
0
0
0
0
0
0
0
0
0
0
0
0
0
0
0
0
0
0
0
0
0
0
0
0
0
0
0
0
0
0
0
0
0
0
0
0
0
0
0
0
0
0
0
0
0
0
0
0
0
0
0
0
0
0
0
0
0
0
0
0
0
0
0
0
0
0
0
0
0
0
0
0
0
0
0
0
0
0
0
0
0
0
0
0
0
0
0
0
0
0
0
0
0
0
0
0
0
0
0
0
0
0
0
0
0
0
0
0
0
0
0
0
0
0
0
0
0
0
0
0
0
0
0
0
0
0
0
0
0
0
0
0
0
0
0
0
0
0
0
0
0
0
0
0
0
0
0
0
0
0
0
0
0
0
0
0
0
0
0
0
0
0
0
0
0
0
0
0
0
0
0
0
0
0
0
0
0
0
0
0
0
0
0
0
0
0
0
0
0
0
0
0
0
0
0
0
0
0
0
0
0
0
0
0
0
0
0
0
0
0
0
0
0
0
0
0

SCALARS Nodal_Pressure float 1
LOOKUP_TABLE default
0
0
0
0
0
0
0
0
0
0
0
0
0
0
0
0
0
0
0
0
0
0
0
0
0
0
0
0
0
0
0
0
0
0
0
0
0
0
0
0
0
0
0
0
0
0
0
0
0
0
0
0
0
0
0
0
0
0
0
0
0
0
0
0
0
0
0
0
0
0
0
0
0
0
0
0
0
0
0
0
0
0
0
0
0
0
0
0
0
0
0
0
0
0
0
0
0
0
0
0
0
0
0
0
0
0
0
0
0
0
0
0
0
0
0
0
0
0
0
0
0
0
0
0
0
0
0
0
0
0
0
0
0
0
0
0
0
0
0
0
0
0
0
0
0
0
0
0
0
0
0
0
0
0
0
0
0
0
0
0
0
0
0
0
0
0
0
0
0
0
0
0
0
0
0
0
0
0
0
0
0
0
0
0
0
0
0
0
0
0
0
0
0
0
0
0
0
0
0
0
0
0
0
0
0
0
0
0
0
0
0
0
0
0
0
0
0
0
0
0
0
0
0
0
0
0
0
0
0
0
0
0
0
0
0
0
0
0
0
0
0
0
0
0
0
0
0
0
0
0
0
0
0
0
0
0
0
0
0
0
0
0
0
0
0
0
0
0
0
0
0
0
0
0
0
0
0
0
0
0
0
0
0
0
0
0
0
0
0
0
0
0
0
0
0
0
0
0
0
0
0
0
0
0
0
0
0
0
0
0
0
0
0
0
0
0
0
0
0
0
0
0
0
0
0
0
0
0
0
0
0
0
0
0
0
0
0
0
0
0
0
0
0
0
0
0
0
0
0
0
0
0
0
0
0
0
0
0
0
0
0
0
0
0
0
0
0
0
0
0
0
0
0
0
0
0
0
0
0
0
0
0
0
0
0
0
0
0
0
0
0
0
0
0
0
0
0
0
0
0
0
0
0
0
0
0
0
0
0
0
0
0
0
0
0
0
0
0
0
0
0
0
0
0
0
0
0
0
0
0
0
0
0
0
0
0
0
0
0
0
0
0
0
0
0
0
0
0
0
0
0
0
0
0
0
0
0
0
0
0
0
0
0
0
0
0
0
0
0
0
0
0
0
0
0
0
0
0
0
0
0
0
0
0
0
0
0
0
0
0
0
0
0
0
0
0
0
0
0
0
0
0
0
0
0
0
0
0
0
0
0
0
0
0
0
0
0
0
0
0
0
0
0
0
0
0
0
0
0
0
0
0
0
0
0
0
0
0
0
0
0
0
0
0
0
0
0
0
0
0
0
0
0
0
0
0
0
0
0
0
0
0
0
0
0
0
0
0
0
0
0
0
0
0
0
0
0
0
0
0
0
0
0
0
0
0
0
0
0
0
0
0
0
0
0
0
0
0
0
0
0
0
0
0
0
0
0

SCALARS Nodal_Density float 1
LOOKUP_TABLE default
0
0
0
0
0
0
0
0
0
0
0
0
0
0
0
0
0
0
0
0
0
0
0
0
0
0
0
0
0
0
0
0
0
0
0
0
0
0
0
0
0
0
0
0
0
0
0
0
0
0
0
0
0
0
0
0
0
0
0
0
0
0
0
0
0
0
0
0
0
0
0
0
0
0
0
0
0
0
0
0
0
0
0
0
0
0
0
0
0
0
0
0
0
0
0
0
0
0
0
0
0
0
0
0
0
0
0
0
0
0
0
0
0
0
0
0
0
0
0
0
0
0
0
0
0
0
0
0
0
0
0
0
0
0
0
0
0
0
0
0
0
0
0
0
0
0
0
0
0
0
0
0
0
0
0
0
0
0
0
0
0
0
0
0
0
0
0
0
0
0
0
0
0
0
0
0
0
0
0
0
0
0
0
0
0
0
0
0
0
0
0
0
0
0
0
0
0
0
0
0
0
0
0
0
0
0
0
0
0
0
0
0
0
0
0
0
0
0
0
0
0
0
0
0
0
0
0
0
0
0
0
0
0
0
0
0
0
0
0
0
0
0
0
0
0
0
0
0
0
0
0
0
0
0
0
0
0
0
0
0
0
0
0
0
0
0
0
0
0
0
0
0
0
0
0
0
0
0
0
0
0
0
0
0
0
0
0
0
0
0
0
0
0
0
0
0
0
0
0
0
0
0
0
0
0
0
0
0
0
0
0
0
0
0
0
0
0
0
0
0
0
0
0
0
0
0
0
0
0
0
0
0
0
0
0
0
0
0
0
0
0
0
0
0
0
0
0
0
0
0
0
0
0
0
0
0
0
0
0
0
0
0
0
0
0
0
0
0
0
0
0
0
0
0
0
0
0
0
0
0
0
0
0
0
0
0
0
0
0
0
0
0
0
0
0
0
0
0
0
0
0
0
0
0
0
0
0
0
0
0
0
0
0
0
0
0
0
0
0
0
0
0
0
0
0
0
0
0
0
0
0
0
0
0
0
0
0
0
0
0
0
0
0
0
0
0
0
0
0
0
0
0
0
0
0
0
0
0
0
0
0
0
0
0
0
0
0
0
0
0
0
0
0
0
0
0
0
0
0
0
0
0
0
0
0
0
0
0
0
0
0
0
0
0
0
0
0
0
0
0
0
0
0
0
0
0
0
0
0
0
0
0
0
0
0
0
0
0
0
0
0
0
0
0
0
0
0
0
0
0
0
0
0
0
0
0
0
0
0
0
0
0
0
0
0
0
0
0
0
0
0
0
0
0
0
0
0
0
0
0
0
0
0
0
0
0
0
0
0
0
0
0
0
0
0
0
0
0
0
0
0
0
0
0
0
0
0
0
0
0
0
0
0
0
0
0
0
0
0
0
0
0
0
0
0
0
0

SCALARS Nodal_Temperature float 1
LOOKUP_TABLE default
0
0
0
0
0
0
0
0
0
0
0
0
0
0
0
0
0
0
0
0
0
0
0
0
0
0
0
0
0
0
0
0
0
0
0
0
0
0
0
0
0
0
0
0
0
0
0
0
0
0
0
0
0
0
0
0
0
0
0
0
0
0
0
0
0
0
0
0
0
0
0
0
0
0
0
0
0
0
0
0
0
0
0
0
0
0
0
0
0
0
0
0
0
0
0
0
0
0
0
0
0
0
0
0
0
0
0
0
0
0
0
0
0
0
0
0
0
0
0
0
0
0
0
0
0
0
0
0
0
0
0
0
0
0
0
0
0
0
0
0
0
0
0
0
0
0
0
0
0
0
0
0
0
0
0
0
0
0
0
0
0
0
0
0
0
0
0
0
0
0
0
0
0
0
0
0
0
0
0
0
0
0
0
0
0
0
0
0
0
0
0
0
0
0
0
0
0
0
0
0
0
0
0
0
0
0
0
0
0
0
0
0
0
0
0
0
0
0
0
0
0
0
0
0
0
0
0
0
0
0
0
0
0
0
0
0
0
0
0
0
0
0
0
0
0
0
0
0
0
0
0
0
0
0
0
0
0
0
0
0
0
0
0
0
0
0
0
0
0
0
0
0
0
0
0
0
0
0
0
0
0
0
0
0
0
0
0
0
0
0
0
0
0
0
0
0
0
0
0
0
0
0
0
0
0
0
0
0
0
0
0
0
0
0
0
0
0
0
0
0
0
0
0
0
0
0
0
0
0
0
0
0
0
0
0
0
0
0
0
0
0
0
0
0
0
0
0
0
0
0
0
0
0
0
0
0
0
0
0
0
0
0
0
0
0
0
0
0
0
0
0
0
0
0
0
0
0
0
0
0
0
0
0
0
0
0
0
0
0
0
0
0
0
0
0
0
0
0
0
0
0
0
0
0
0
0
0
0
0
0
0
0
0
0
0
0
0
0
0
0
0
0
0
0
0
0
0
0
0
0
0
0
0
0
0
0
0
0
0
0
0
0
0
0
0
0
0
0
0
0
0
0
0
0
0
0
0
0
0
0
0
0
0
0
0
0
0
0
0
0
0
0
0
0
0
0
0
0
0
0
0
0
0
0
0
0
0
0
0
0
0
0
0
0
0
0
0
0
0
0
0
0
0
0
0
0
0
0
0
0
0
0
0
0
0
0
0
0
0
0
0
0
0
0
0
0
0
0
0
0
0
0
0
0
0
0
0
0
0
0
0
0
0
0
0
0
0
0
0
0
0
0
0
0
0
0
0
0
0
0
0
0
0
0
0
0
0
0
0
0
0
0
0
0
0
0
0
0
0
0
0
0
0
0
0
0
0
0
0
0
0
0
0
0
0
0
0
0
0
0
0
0
0
0
0
0
0

VECTORS Velocity float
-0.00684955 -0.00403478 0.0158783
0 0 0
-0.290567 0.0122543 0.162027
-0.932439 0.199287 9.5308
-0.301722 -0.166268 8.75309
-0.754628 0.16619 8.81391
-0.609957 0.164615 8.86191
-0.749146 0.46713 8.42711
-0.979543 0.0542817 8.348
-0.0337373 -0.0962659 0.122414
0 0 0
-0.325892 -0.0180579 0.359902
-1.5411 0.00609016 1.61595
-1.45133 -0.173718 2.11305
-1.55445 0.00620032 2.23738
-1.58882 -0.250306 1.77431
-1.30641 -0.278526 2.67212
-1.45503 -0.302705 2.75902
-1.40791 -0.0287274 1.88006
-2.30072 0.259152 3.03437
-1.49706 0.040998 1.26792
-1.2313 -0.633248 1.8481
-2.16404 -0.819273 3.43774
-1.34591 -0.404708 2.33207
-1.69529 -0.388257 1.48328
-1.4516 -0.288568 2.23139
-1.34878 -0.112289 2.62857
-1.93723 -0.092055 1.56652
-1.72985 -0.036868 2.19317
-1.24335 -0.173013 2.76679
0.10728 -0.189488 6.88669
0.846893 -0.10389 6.23939
1.37197 0.129996 5.90091
0.974533 0.0720306 6.1818
0.749219 0.00701508 6.51365
0.622268 0.148042 6.37727
0.34636 0.116416 6.54202
0.667725 -0.077021 6.25543
0.717542 0.161109 6.39439
1.14055 0.0519032 5.92181
0.95668 0.137542 6.15062
1.02523 0.00551238 6.19378
0.774351 -0.355487 6.20923
1.5005 -0.777695 5.70676
3.1644 0.377209 4.25469
0.82213 0.333996 6.0757
0.824324 0.106667 6.51984
1.70396 -0.209075 5.8118
0 0 0
0 0 0
0 0 0
0 0 0
0 0 0
0 0 0
0 0 0
0 0 0
0 0 0
-0.75802 -0.00254136 9.12784
-0.930355 0.128557 8.77807
-0.641658 0.110222 8.50061
-1.42234 0.0074766 7.69156
-1.27244 0.16833 7.51471
-1.66028 0.0523852 7.30269
-1.6912 -0.0152914 7.17721
-1.29155 0.0933075 7.78681
-0.995161 0.066125 8.27213
0 0 0
0 0 0
0 0 0
0 0 0
0 0 0
0 0 0
0 0 0
-0.244071 0.429059 8.16666
0.262409 0.409652 7.97024
1.2964 0.113433 7.74212
0.85045 -0.109536 7.84601
0.670842 -0.205333 8.07776
0.92862 -0.34115 7.93618
-0.428576 -0.164684 8.81149
-0.299903 -0.0787436 0.158671
-0.350189 0.0366206 0.103315
-0.944016 -0.00352261 0.459784
-0.573646 -0.00030941 0.265338
-0.798313 0.0141831 0.386071
-0.530631 -0.004818 0.259007
-0.499597 0.0107362 0.258477
-0.440939 -0.0195053 7.98714
-1.06453 -0.0659628 8.83923
-0.862457 -0.0176068 7.88622
-1.18091 0.0111833 8.40339
-1.0694 0.12995 8.46054
-1.02403 0.123482 8.32279
-0.835686 0.0668395 8.50095
-0.131277 0.0285179 0.12264
-0.215865 0.175875 0.266143
-0.39861 0.00336333 0.450546
-0.591655 0.100862 0.537426
-0.855299 -0.132567 0.936792
-1.10486 -0.166287 1.18275
-1.25247 -0.169484 1.38994
-1.36004 -0.251015 1.47698
-1.83731 0.275989 2.66658
-1.86957 0.577864 2.65716
-1.59355 0.712362 2.49293
-0.847171 0.394027 1.61558
-0.45127 0.17824 1.019
-0.0777113 -0.0945236 0.0853702
-0.154234 0.0406134 0.370664
-0.323463 0.106661 0.135286
-0.378367 0.276327 0.255104
-0.170886 0.716612 -0.332532
-0.691411 0.42738 0.227001
-0.829667 0.347258 0.578164
-0.898728 0.260791 0.628942
-0.974535 0.339899 0.66456
-1.50534 -0.0926864 2.44738
-1.43153 -0.211405 2.80222
-1.42257 -0.140398 3.15138
-1.5032 -0.275327 3.40063
-1.43174 -0.27666 3.50479
-1.31922 -0.267489 3.38258
-1.37649 -0.349625 3.10057
-1.29453 -0.460747 2.30073
-1.07257 -0.450772 2.09334
-0.886905 -0.232039 1.74718
-0.654093 -0.131873 1.31046
-0.420583 0.120095 0.9313
-0.342144 0.0128543 0.557428
-0.403555 0.0120937 0.340719
-0.169377 -0.0557153 0.36558
-1.4007 -0.245181 3.16426
-1.35382 -0.294634 3.495
-1.60852 -0.169513 3.37253
-1.53706 -0.045923 3.47404
-1.62278 0.0305303 2.94049
-1.50258 0.0666212 2.81533
-1.54896 0.00600462 2.45971
-0.176546 -0.0562033 0.522337
-0.445678 -0.0355194 0.954497
-0.432132 -0.248045 1.17262
-0.643759 -0.318342 1.72385
-1.18498 -0.755608 2.47502
-1.5088 -0.881609 2.83654
-1.65809 -0.977212 2.94025
-1.78872 -0.0824225 2.94773
-1.50119 -0.201881 2.19147
-1.14711 -0.368627 1.42026
-0.861486 -0.309625 0.836648
-0.479532 -0.392191 0.289158
-0.0850127 -0.350713 -0.138451
-0.181588 -0.186543 0.148527
-1.75065 0.113416 2.76227
-2.02787 0.169876 3.31836
-1.87635 0.00819864 3.43665
-2.08444 -0.0204306 3.85628
-1.9597 -0.251679 3.93607
-2.16558 -0.440669 4.02519
-1.67915 -0.587365 3.444
-1.32672 -0.263456 1.70887
-1.57582 -0.0150401 2.73963
-1.62586 -0.0964895 3.34567
-1.75308 -0.0362158 3.3254
-1.67305 0.0263664 3.42942
-1.69322 0.0161283 2.97096
-1.61139 0.0444556 2.67807
1.12566 -0.756336 6.1867
0.817532 -0.553617 6.74635
0.727202 -0.644104 6.9959
0.32772 -0.371637 7.59481
-0.320882 -0.403389 8.36028
-0.494384 -0.383665 8.7596
-0.301219 -0.0678059 8.66738
-0.236878 -0.172403 8.81235
-0.985109 -0.0521966 9.34448
-1.32252 0.495745 9.74469
-0.887629 0.355253 9.51897
0.0130128 -0.227442 8.36964
0.707836 -0.486511 7.23577
1.22005 -0.794602 6.47927
2.14135 -1.12592 5.25792
2.15953 0.221791 4.90302
1.85047 -0.00593372 5.21045
0.731119 -0.231032 6.47511
-0.190356 -0.501145 7.31341
-1.71334 -1.332 9.47637
-1.20238 -0.763415 9.37011
-0.487241 -0.37204 8.74193
-0.922839 0.285931 8.32742
-0.900044 -0.172119 8.34854
-0.567338 0.513485 8.35376
-0.325331 0.698989 8.20427
-0.00022155 0.870118 7.95992
0.346707 0.882843 7.51417
0.763687 1.01532 6.78131
0.78333 0.709515 6.27022
0.878494 0.320334 6.93223
0.537278 0.165691 7.67371
0.472378 0.299148 7.9378
0.017076 -0.113555 8.52214
-0.593844 -0.470758 8.79305
-0.768421 -0.13393 8.42871
-0.689493 0.155946 8.27601
-1.59267 -0.415266 2.31066
-1.6108 -0.292842 2.66509
-0.919988 -0.449479 3.74312
-1.13267 -0.333742 3.76767
-1.21962 -0.228655 3.62924
-1.01772 -0.167698 3.93123
-1.11166 -0.0414044 3.27307
-0.900564 -0.1257 8.25301
-0.934672 0.102848 8.11277
-0.596836 0.152164 7.86075
-0.29009 0.252342 7.39069
0.276899 0.0932997 6.46883
0.782482 0.116022 5.91006
1.74176 -0.290578 5.23576
-1.21575 -0.231758 3.28029
-1.41536 -0.109111 3.4525
-1.51974 -0.0201628 3.35132
-1.69756 -0.0767123 3.32747
-1.4764 -0.112235 3.44225
-1.28722 0.0274948 3.9601
-1.37428 0.0561681 2.92642
-1.56184 -0.541988 2.02234
-1.60501 -0.465257 3.4335
-1.09258 -0.299171 4.28182
-1.32827 -0.217364 4.32606
-1.10284 -0.0456913 4.8249
-1.31052 -0.16954 4.21659
-1.10276 0.128325 4.99381
-0.793313 -0.00666992 5.60001
-0.641737 -0.0862977 5.63561
-0.874232 -0.239587 4.9745
-0.744141 -0.309144 4.8749
-0.342788 -0.620704 5.45642
-1.01399 -0.443916 4.23377
-1.52928 -0.525758 2.15638
-1.76548 -0.739827 1.96333
-1.3387 -0.432885 3.52116
-0.259974 0.11696 6.05624
-0.173754 0.161925 6.0765
-0.0673778 0.142968 6.40492
-0.97754 0.0249218 5.00801
-0.807105 0.0184311 5.63065
0.0695253 0.0477375 8.12041
0.313554 0.0201862 7.60297
0.182293 -0.016022 7.55347
0.715348 -0.142539 6.74302
0.363284 -0.0100291 7.58051
0.347745 -0.060122 8.01877
0.639986 -0.0139523 6.8617
-0.591026 -0.192769 5.07094
-0.695033 -0.0836095 4.64475