# vtk DataFile Version 3.0
vtk output
ASCII
DATASET UNSTRUCTURED_GRID
FIELD FieldData 2
TIME 1 1 double
0
CYCLE 1 1 int
0
POINTS 607 float
0 0 0
20 20 -1.5
20 20 1.5
200 0 12
180 20 10.5
180 20 13.5
200 200 12
180 180 10.5
180 180 13.5
0 200 0
20 180 -1.5
20 180 1.5
193.333 0 3
200 20 3
186.667 20 3
193.333 200 3
200 180 3
186.667 180 3
180 0 0
180 20 -1.5
180 20 1.5
180 200 0
180 180 -1.5
180 180 1.5
180 0 6
180 20 7.5
180 20 4.5
180 200 6
180 180 7.5
180 180 4.5
6.66667 0 9
13.3333 20 9
0 20 9
6.66667 200 9
13.3333 180 9
0 180 9
20 0 6
20 20 7.5
20 20 4.5
20 200 6
20 180 7.5
20 180 4.5
20 0 12
20 20 10.5
20 20 13.5
20 200 12
20 180 10.5
20 180 13.5
0 180 0
0 160 0
0 140 0
0 120 0
0 100 0
0 80 0
0 60 0
0 40 0
0 20 0
200 20 12
200 40 12
200 60 12
200 80 12
200 100 12
200 120 12
200 140 12
200 160 12
200 180 12
20 40 -1.5
20 60 -1.5
20 80 -1.5
20 100 -1.5
20 120 -1.5
20 140 -1.5
20 160 -1.5
180 160 10.5
180 140 10.5
180 120 10.5
180 100 10.5
180 80 10.5
180 60 10.5
180 40 10.5
20 160 1.5
20 140 1.5
20 120 1.5
20 100 1.5
20 80 1.5
20 60 1.5
20 40 1.5
180 40 13.5
180 60 13.5
180 80 13.5
180 100 13.5
180 120 13.5
180 140 13.5
180 160 13.5
20 0 0
40 0 0
60 0 0
80 0 0
100 0 0
120 0 0
140 0 0
160 0 0
160 20 -1.5
140 20 -1.5
120 20 -1.5
100 20 -1.5
80 20 -1.5
60 20 -1.5
40 20 -1.5
40 20 1.5
60 20 1.5
80 20 1.5
100 20 1.5
120 20 1.5
140 20 1.5
160 20 1.5
200 40 3
200 60 3
200 80 3
200 100 3
200 120 3
200 140 3
200 160 3
160 200 0
140 200 0
120 200 0
100 200 0
80 200 0
60 200 0
40 200 0
20 200 0
186.667 160 3
186.667 140 3
186.667 120 3
186.667 100 3
186.667 80 3
186.667 60 3
186.667 40 3
40 180 -1.5
60 180 -1.5
80 180 -1.5
100 180 -1.5
120 180 -1.5
140 180 -1.5
160 180 -1.5
160 180 1.5
140 180 1.5
120 180 1.5
100 180 1.5
80 180 1.5
60 180 1.5
40 180 1.5
180 40 -1.5
180 60 -1.5
180 80 -1.5
180 100 -1.5
180 120 -1.5
180 140 -1.5
180 160 -1.5
180 160 1.5
180 140 1.5
180 120 1.5
180 100 1.5
180 80 1.5
180 60 1.5
180 40 1.5
40 0 12
60 0 12
80 0 12
100 0 12
120 0 12
140 0 12
160 0 12
180 0 12
160 20 10.5
140 20 10.5
120 20 10.5
100 20 10.5
80 20 10.5
60 20 10.5
40 20 10.5
40 20 13.5
60 20 13.5
80 20 13.5
100 20 13.5
120 20 13.5
140 20 13.5
160 20 13.5
180 200 12
160 200 12
140 200 12
120 200 12
100 200 12
80 200 12
60 200 12
40 200 12
40 180 10.5
60 180 10.5
80 180 10.5
100 180 10.5
120 180 10.5
140 180 10.5
160 180 10.5
180 40 7.5
180 60 7.5
180 80 7.5
180 100 7.5
180 120 7.5
180 140 7.5
180 160 7.5
160 180 13.5
140 180 13.5
120 180 13.5
100 180 13.5
80 180 13.5
60 180 13.5
40 180 13.5
180 160 4.5
180 140 4.5
180 120 4.5
180 100 4.5
180 80 4.5
180 60 4.5
180 40 4.5
160 0 6
140 0 6
120 0 6
100 0 6
80 0 6
60 0 6
40 0 6
40 20 7.5
60 20 7.5
80 20 7.5
100 20 7.5
120 20 7.5
140 20 7.5
160 20 7.5
160 20 4.5
140 20 4.5
120 20 4.5
100 20 4.5
80 20 4.5
60 20 4.5
40 20 4.5
13.3333 40 9
13.3333 60 9
13.3333 80 9
13.3333 100 9
13.3333 120 9
13.3333 140 9
13.3333 160 9
40 200 6
60 200 6
80 200 6
100 200 6
120 200 6
140 200 6
160 200 6
0 160 9
0 140 9
0 120 9
0 100 9
0 80 9
0 60 9
0 40 9
160 180 7.5
140 180 7.5
120 180 7.5
100 180 7.5
80 180 7.5
60 180 7.5
40 180 7.5
40 180 4.5
60 180 4.5
80 180 4.5
100 180 4.5
120 180 4.5
140 180 4.5
160 180 4.5
20 40 7.5
20 60 7.5
20 80 7.5
20 100 7.5
20 120 7.5
20 140 7.5
20 160 7.5
20 160 4.5
20 140 4.5
20 120 4.5
20 100 4.5
20 80 4.5
20 60 4.5
20 40 4.5
20 40 10.5
20 60 10.5
20 80 10.5
20 100 10.5
20 120 10.5
20 140 10.5
20 160 10.5
20 160 13.5
20 140 13.5
20 120 13.5
20 100 13.5
20 80 13.5
20 60 13.5
20 40 13.5
40 40 13.5
60 40 13.5
80 40 13.5
100 40 13.5
120 40 13.5
140 40 13.5
160 40 13.5
40 60 13.5
60 60 13.5
80 60 13.5
100 60 13.5
120 60 13.5
140 60 13.5
160 60 13.5
40 80 13.5
60 80 13.5
80 80 13.5
100 80 13.5
120 80 13.5
140 80 13.5
160 80 13.5
40 100 13.5
60 100 13.5
80 100 13.5
100 100 13.5
120 100 13.5
140 100 13.5
160 100 13.5
40 120 13.5
60 120 13.5
80 120 13.5
100 120 13.5
120 120 13.5
140 120 13.5
160 120 13.5
40 140 13.5
60 140 13.5
80 140 13.5
100 140 13.5
120 140 13.5
140 140 13.5
160 140 13.5
40 160 13.5
60 160 13.5
80 160 13.5
100 160 13.5
120 160 13.5
140 160 13.5
160 160 13.5
160 160 4.5
160 140 4.5
160 120 4.5
160 100 4.5
160 80 4.5
160 60 4.5
160 40 4.5
140 160 4.5
140 140 4.5
140 120 4.5
140 100 4.5
140 80 4.5
140 60 4.5
140 40 4.5
120 160 4.5
120 140 4.5
120 120 4.5
120 100 4.5
120 80 4.5
120 60 4.5
120 40 4.5
100 160 4.5
100 140 4.5
100 120 4.5
100 100 4.5
100 80 4.5
100 60 4.5
100 40 4.5
80 160 4.5
80 140 4.5
80 120 4.5
80 100 4.5
80 80 4.5
80 60 4.5
80 40 4.5
60 160 4.5
60 140 4.5
60 120 4.5
60 100 4.5
60 80 4.5
60 60 4.5
60 40 4.5
40 160 4.5
40 140 4.5
40 120 4.5
40 100 4.5
40 80 4.5
40 60 4.5
40 40 4.5
40 160 10.5
60 160 10.5
80 160 10.5
100 160 10.5
120 160 10.5
140 160 10.5
160 160 10.5
40 140 10.5
60 140 10.5
80 140 10.5
100 140 10.5
120 140 10.5
140 140 10.5
160 140 10.5
40 120 10.5
60 120 10.5
80 120 10.5
100 120 10.5
120 120 10.5
140 120 10.5
160 120 10.5
40 100 10.5
60 100 10.5
80 100 10.5
100 100 10.5
120 100 10.5
140 100 10.5
160 100 10.5
40 80 10.5
60 80 10.5
80 80 10.5
100 80 10.5
120 80 10.5
140 80 10.5
160 80 10.5
40 60 10.5
60 60 10.5
80 60 10.5
100 60 10.5
120 60 10.5
140 60 10.5
160 60 10.5
40 40 10.5
60 40 10.5
80 40 10.5
100 40 10.5
120 40 10.5
140 40 10.5
160 40 10.5
40 160 7.5
40 140 7.5
40 120 7.5
40 100 7.5
40 80 7.5
40 60 7.5
40 40 7.5
60 160 7.5
60 140 7.5
60 120 7.5
60 100 7.5
60 80 7.5
60 60 7.5
60 40 7.5
80 160 7.5
80 140 7.5
80 120 7.5
80 100 7.5
80 80 7.5
80 60 7.5
80 40 7.5
100 160 7.5
100 140 7.5
100 120 7.5
100 100 7.5
100 80 7.5
100 60 7.5
100 40 7.5
120 160 7.5
120 140 7.5
120 120 7.5
120 100 7.5
120 80 7.5
120 60 7.5
120 40 7.5
140 160 7.5
140 140 7.5
140 120 7.5
140 100 7.5
140 80 7.5
140 60 7.5
140 40 7.5
160 160 7.5
160 140 7.5
160 120 7.5
160 100 7.5
160 80 7.5
160 60 7.5
160 40 7.5
40 160 1.5
40 140 1.5
40 120 1.5
40 100 1.5
40 80 1.5
40 60 1.5
40 40 1.5
60 160 1.5
60 140 1.5
60 120 1.5
60 100 1.5
60 80 1.5
60 60 1.5
60 40 1.5
80 160 1.5
80 140 1.5
80 120 1.5
80 100 1.5
80 80 1.5
80 60 1.5
80 40 1.5
100 160 1.5
100 140 1.5
100 120 1.5
100 100 1.5
100 80 1.5
100 60 1.5
100 40 1.5
120 160 1.5
120 140 1.5
120 120 1.5
120 100 1.5
120 80 1.5
120 60 1.5
120 40 1.5
140 160 1.5
140 140 1.5
140 120 1.5
140 100 1.5
140 80 1.5
140 60 1.5
140 40 1.5
160 160 1.5
160 140 1.5
160 120 1.5
160 100 1.5
160 80 1.5
160 60 1.5
160 40 1.5
160 160 -1.5
160 140 -1.5
160 120 -1.5
160 100 -1.5
160 80 -1.5
160 60 -1.5
160 40 -1.5
140 160 -1.5
140 140 -1.5
140 120 -1.5
140 100 -1.5
140 80 -1.5
140 60 -1.5
140 40 -1.5
120 160 -1.5
120 140 -1.5
120 120 -1.5
120 100 -1.5
120 80 -1.5
120 60 -1.5
120 40 -1.5
100 160 -1.5
100 140 -1.5
100 120 -1.5
100 100 -1.5
100 80 -1.5
100 60 -1.5
100 40 -1.5
80 160 -1.5
80 140 -1.5
80 120 -1.5
80 100 -1.5
80 80 -1.5
80 60 -1.5
80 40 -1.5
60 160 -1.5
60 140 -1.5
60 120 -1.5
60 100 -1.5
60 80 -1.5
60 60 -1.5
60 40 -1.5
40 160 -1.5
40 140 -1.5
40 120 -1.5
40 100 -1.5
40 80 -1.5
40 60 -1.5
40 40 -1.5
100 100 -1.5
0.0151011 0.0151011 -1.5
199.985 0.0151011 -1.5
199.985 199.985 -1.5
0.0151011 199.985 -1.5

CELLS 614 3070
4 323 324 331 330
4 330 331 338 337
4 337 338 345 344
4 338 339 346 345
4 344 345 352 351
4 345 346 353 352
4 351 352 214 215
4 352 353 213 214
4 195 216 215 194
4 194 215 214 193
4 214 213 192 193
4 307 308 315 306
4 306 315 322 305
4 315 316 323 322
4 305 322 329 304
4 322 323 330 329
4 304 329 336 303
4 329 330 337 336
4 303 336 343 302
4 336 337 344 343
4 302 343 350 301
4 343 344 351 350
4 301 350 216 47
4 350 351 215 216
4 265 307 306 264
4 264 306 305 263
4 263 305 304 262
4 262 304 303 261
4 261 303 302 260
4 260 302 301 259
4 301 47 35 259
4 45 47 216 195
4 33 35 47 45
4 182 183 310 309
4 183 184 311 310
4 184 185 312 311
4 185 186 313 312
4 186 187 314 313
4 187 5 87 314
4 309 310 317 316
4 310 311 318 317
4 311 312 319 318
4 312 313 320 319
4 313 314 321 320
4 314 87 88 321
4 316 317 324 323
4 317 318 325 324
4 318 319 326 325
4 319 320 327 326
4 320 321 328 327
4 321 88 89 328
4 324 325 332 331
4 325 326 333 332
4 326 327 334 333
4 327 328 335 334
4 328 89 90 335
4 331 332 339 338
4 332 333 340 339
4 333 334 341 340
4 334 335 342 341
4 335 90 91 342
4 339 340 347 346
4 340 341 348 347
4 341 342 349 348
4 342 91 92 349
4 346 347 354 353
4 347 348 355 354
4 348 349 356 355
4 349 92 93 356
4 353 354 212 213
4 354 355 211 212
4 355 356 210 211
4 93 8 210 356
4 93 92 63 64
4 8 93 64 65
4 181 166 167 182
4 182 167 168 183
4 183 168 169 184
4 184 169 170 185
4 185 170 171 186
4 186 171 172 187
4 187 172 173 5
4 173 3 57 5
4 5 57 58 87
4 87 58 59 88
4 88 59 60 89
4 60 61 90 89
4 92 91 62 63
4 91 90 61 62
4 189 190 211 210
4 188 189 210 8
4 190 191 212 211
4 191 192 213 212
4 44 181 308 307
4 181 182 309 308
4 308 309 316 315
4 32 44 307 265
4 44 42 166 181
4 32 30 42 44
4 65 6 8 8
4 8 6 188 188
4 577 578 585 584
4 578 579 586 585
4 582 583 590 589
4 583 584 591 590
4 584 585 592 591
4 585 586 593 592
4 586 587 594 593
4 588 589 596 595
4 589 590 597 596
4 590 591 598 597
4 591 592 599 598
4 592 593 600 599
4 593 594 601 600
4 138 595 72 10
4 595 596 71 72
4 596 597 70 71
4 597 598 69 70
4 598 599 68 69
4 599 600 67 68
4 600 601 66 67
4 48 9 130 10
4 10 130 129 138
4 48 10 72 72
4 48 72 49 49
4 49 72 71 71
4 49 71 50 50
4 50 71 70 70
4 50 70 51 51
4 51 70 69 69
4 51 69 52 52
4 52 69 68 68
4 52 68 53 53
4 53 68 67 67
4 53 67 54 54
4 54 67 66 66
4 54 66 55 55
4 143 560 567 142
4 560 561 568 567
4 561 562 569 568
4 562 563 570 569
4 563 564 571 570
4 142 567 574 141
4 567 568 575 574
4 568 569 576 575
4 569 570 577 576
4 570 571 578 577
4 141 574 581 140
4 574 575 582 581
4 575 576 583 582
4 576 577 584 583
4 140 581 588 139
4 581 582 589 588
4 139 588 595 138
4 138 129 128 139
4 139 128 127 140
4 140 127 126 141
4 141 126 125 142
4 142 125 124 143
4 22 16 122 158
4 158 122 121 157
4 157 121 120 156
4 156 120 119 155
4 155 119 118 154
4 22 158 553 144
4 158 157 554 553
4 157 156 555 554
4 156 155 556 555
4 155 154 557 556
4 144 553 560 143
4 553 554 561 560
4 554 555 562 561
4 555 556 563 562
4 556 557 564 563
4 557 558 565 564
4 21 15 16 22
4 143 124 123 144
4 123 21 22 144
4 558 559 566 565
4 559 102 103 566
4 564 565 572 571
4 565 566 573 572
4 566 103 104 573
4 571 572 579 578
4 572 573 580 579
4 573 104 105 580
4 579 580 587 586
4 580 105 106 587
4 587 106 107 594
4 594 107 108 601
4 108 1 66 601
4 103 100 99 104
4 99 98 105 104
4 108 107 96 95
4 1 108 95 94
4 107 106 97 96
4 106 105 98 97
4 154 118 117 153
4 153 117 116 152
4 116 13 19 152
4 154 153 558 557
4 153 152 559 558
4 152 19 102 559
4 19 13 12 18
4 19 18 101 102
4 102 101 100 103
4 94 0 1 1
4 1 0 56 56
4 55 66 1 1
4 55 1 56 56
4 11 80 504 151
4 80 81 505 504
4 81 82 506 505
4 82 83 507 506
4 83 84 508 507
4 84 85 509 508
4 506 507 514 513
4 507 508 515 514
4 86 85 54 55
4 151 129 130 11
4 130 9 48 11
4 11 48 49 80
4 80 49 50 81
4 81 50 51 82
4 51 52 83 82
4 85 84 53 54
4 84 83 52 53
4 151 504 511 150
4 504 505 512 511
4 505 506 513 512
4 150 511 518 149
4 511 512 519 518
4 512 513 520 519
4 513 514 521 520
4 149 518 525 148
4 518 519 526 525
4 519 520 527 526
4 520 521 528 527
4 148 525 532 147
4 525 526 533 532
4 526 527 534 533
4 527 528 535 534
4 147 532 539 146
4 532 533 540 539
4 533 534 541 540
4 534 535 542 541
4 146 124 125 147
4 147 125 126 148
4 148 126 127 149
4 149 127 128 150
4 150 128 129 151
4 162 134 133 161
4 161 133 132 160
4 160 132 131 159
4 131 17 23 159
4 146 539 546 145
4 539 540 547 546
4 540 541 548 547
4 541 542 549 548
4 145 546 159 23
4 546 547 160 159
4 547 548 161 160
4 548 549 162 161
4 23 17 15 21
4 23 21 123 145
4 145 123 124 146
4 85 86 510 509
4 86 2 109 510
4 508 509 516 515
4 509 510 517 516
4 510 109 110 517
4 514 515 522 521
4 515 516 523 522
4 516 517 524 523
4 517 110 111 524
4 521 522 529 528
4 522 523 530 529
4 523 524 531 530
4 524 111 112 531
4 528 529 536 535
4 529 530 537 536
4 530 531 538 537
4 531 112 113 538
4 535 536 543 542
4 536 537 544 543
4 537 538 545 544
4 538 113 114 545
4 95 96 110 109
4 94 95 109 2
4 100 114 113 99
4 113 112 98 99
4 96 97 111 110
4 97 98 112 111
4 2 86 55 56
4 20 14 137 165
4 165 137 136 164
4 164 136 135 163
4 163 135 134 162
4 542 543 550 549
4 543 544 551 550
4 544 545 552 551
4 545 114 115 552
4 549 550 163 162
4 550 551 164 163
4 551 552 165 164
4 115 20 165 552
4 18 12 14 20
4 18 20 115 101
4 101 115 114 100
4 2 0 94 94
4 56 0 2 2
4 293 265 264 292
4 292 264 263 291
4 291 263 262 290
4 290 262 261 289
4 289 261 260 288
4 288 260 259 287
4 259 35 41 287
4 392 393 400 399
4 393 394 401 400
4 394 395 402 401
4 395 396 403 402
4 396 397 404 403
4 273 399 287 41
4 399 400 288 287
4 400 401 289 288
4 401 402 290 289
4 402 403 291 290
4 403 404 292 291
4 404 405 293 292
4 41 35 33 39
4 273 41 39 252
4 38 32 265 293
4 36 30 32 38
4 230 36 38 244
4 29 217 357 279
4 217 218 358 357
4 218 219 359 358
4 279 357 364 278
4 357 358 365 364
4 358 359 366 365
4 278 364 371 277
4 364 365 372 371
4 365 366 373 372
4 277 371 378 276
4 371 372 379 378
4 372 373 380 379
4 27 29 279 258
4 258 279 278 257
4 257 278 277 256
4 256 277 276 255
4 134 220 219 133
4 133 219 218 132
4 132 218 217 131
4 217 29 17 131
4 15 17 29 27
4 276 378 385 275
4 378 379 386 385
4 379 380 387 386
4 380 381 388 387
4 275 385 392 274
4 385 386 393 392
4 386 387 394 393
4 387 388 395 394
4 274 392 399 273
4 255 276 275 254
4 254 275 274 253
4 253 274 273 252
4 219 220 360 359
4 220 221 361 360
4 221 222 362 361
4 222 223 363 362
4 223 26 238 363
4 359 360 367 366
4 360 361 368 367
4 361 362 369 368
4 362 363 370 369
4 363 238 239 370
4 366 367 374 373
4 367 368 375 374
4 368 369 376 375
4 369 370 377 376
4 370 239 240 377
4 373 374 381 380
4 374 375 382 381
4 375 376 383 382
4 376 377 384 383
4 26 24 224 238
4 238 224 225 239
4 239 225 226 240
4 14 26 223 137
4 137 223 222 136
4 136 222 221 135
4 135 221 220 134
4 14 12 24 26
4 377 240 241 384
4 381 382 389 388
4 382 383 390 389
4 383 384 391 390
4 384 241 242 391
4 388 389 396 395
4 389 390 397 396
4 390 391 398 397
4 391 242 243 398
4 397 398 405 404
4 398 243 244 405
4 244 38 293 405
4 240 226 227 241
4 241 227 228 242
4 242 228 229 243
4 243 229 230 244
4 40 34 251 286
4 286 251 250 285
4 285 250 249 284
4 284 249 248 283
4 283 248 247 282
4 282 247 246 281
4 281 246 245 280
4 40 286 455 272
4 286 285 456 455
4 285 284 457 456
4 284 283 458 457
4 283 282 459 458
4 282 281 460 459
4 281 280 461 460
4 456 457 464 463
4 457 458 465 464
4 458 459 466 465
4 464 465 472 471
4 39 33 34 40
4 39 40 272 252
4 245 31 37 280
4 280 37 231 461
4 37 31 30 36
4 37 36 230 231
4 269 476 483 268
4 476 477 484 483
4 477 478 485 484
4 478 479 486 485
4 268 483 490 267
4 483 484 491 490
4 484 485 492 491
4 485 486 493 492
4 267 490 497 266
4 490 491 498 497
4 491 492 499 498
4 492 493 500 499
4 266 497 209 28
4 497 498 208 209
4 498 499 207 208
4 499 500 206 207
4 500 501 205 206
4 255 269 268 256
4 256 268 267 257
4 257 267 266 258
4 266 28 27 258
4 204 117 118 205
4 205 118 119 206
4 206 119 120 207
4 207 120 121 208
4 208 121 122 209
4 122 16 28 209
4 27 28 16 15
4 272 455 462 271
4 455 456 463 462
4 271 462 469 270
4 462 463 470 469
4 463 464 471 470
4 270 469 476 269
4 469 470 477 476
4 470 471 478 477
4 471 472 479 478
4 252 272 271 253
4 253 271 270 254
4 254 270 269 255
4 479 480 487 486
4 486 487 494 493
4 487 488 495 494
4 488 489 496 495
4 489 235 236 496
4 493 494 501 500
4 494 495 502 501
4 495 496 503 502
4 496 236 237 503
4 501 502 204 205
4 502 503 203 204
4 237 25 203 503
4 235 226 225 236
4 236 225 224 237
4 224 24 25 237
4 25 13 116 203
4 203 116 117 204
4 25 24 12 13
4 459 460 467 466
4 460 461 468 467
4 461 231 232 468
4 465 466 473 472
4 466 467 474 473
4 467 468 475 474
4 468 232 233 475
4 472 473 480 479
4 473 474 481 480
4 474 475 482 481
4 475 233 234 482
4 480 481 488 487
4 481 482 489 488
4 482 234 235 489
4 231 230 229 232
4 232 229 228 233
4 233 228 227 234
4 234 227 226 235
4 196 197 407 406
4 197 198 408 407
4 198 199 409 408
4 406 407 414 413
4 407 408 415 414
4 408 409 416 415
4 413 414 421 420
4 414 415 422 421
4 415 416 423 422
4 420 421 428 427
4 421 422 429 428
4 427 428 435 434
4 196 195 194 197
4 197 194 193 198
4 193 192 199 198
4 46 196 406 300
4 300 406 413 299
4 299 413 420 298
4 298 420 427 297
4 297 427 434 296
4 296 434 441 295
4 294 245 246 295
4 295 246 247 296
4 296 247 248 297
4 297 248 249 298
4 298 249 250 299
4 299 250 251 300
4 251 34 46 300
4 46 45 195 196
4 45 46 34 33
4 199 200 410 409
4 200 201 411 410
4 201 202 412 411
4 202 7 73 412
4 409 410 417 416
4 410 411 418 417
4 411 412 419 418
4 412 73 74 419
4 416 417 424 423
4 417 418 425 424
4 418 419 426 425
4 419 74 75 426
4 422 423 430 429
4 423 424 431 430
4 424 425 432 431
4 425 426 433 432
4 426 75 76 433
4 428 429 436 435
4 429 430 437 436
4 430 431 438 437
4 431 432 439 438
4 432 433 440 439
4 433 76 77 440
4 434 435 442 441
4 435 436 443 442
4 436 437 444 443
4 437 438 445 444
4 438 439 446 445
4 439 440 447 446
4 440 77 78 447
4 441 442 449 448
4 442 443 450 449
4 443 444 451 450
4 444 445 452 451
4 445 446 453 452
4 446 447 454 453
4 447 78 79 454
4 448 449 179 180
4 449 450 178 179
4 450 451 177 178
4 451 452 176 177
4 452 453 175 176
4 453 454 174 175
4 79 4 174 454
4 64 63 74 73
4 65 64 73 7
4 57 3 173 4
4 4 173 172 174
4 174 172 171 175
4 175 171 170 176
4 176 170 169 177
4 177 169 168 178
4 178 168 167 179
4 179 167 166 180
4 57 4 79 58
4 58 79 78 59
4 59 78 77 60
4 77 76 61 60
4 63 62 75 74
4 62 61 76 75
4 202 201 190 189
4 7 202 189 188
4 201 200 191 190
4 200 199 192 191
4 295 441 448 294
4 294 448 180 43
4 43 31 245 294
4 166 42 43 180
4 43 42 30 31
4 7 6 65 65
4 188 6 7 7
4 602 602 602 602
4 603 606 605 604

CELL_TYPES 614
9
9
9
9
9
9
9
9
9
9
9
9
9
9
9
9
9
9
9
9
9
9
9
9
9
9
9
9
9
9
9
9
9
9
9
9
9
9
9
9
9
9
9
9
9
9
9
9
9
9
9
9
9
9
9
9
9
9
9
9
9
9
9
9
9
9
9
9
9
9
9
9
9
9
9
9
9
9
9
9
9
9
9
9
9
9
9
9
9
9
9
9
9
9
9
9
9
9
9
5
5
9
9
9
9
9
9
9
9
9
9
9
9
9
9
9
9
9
9
9
9
9
9
5
5
5
5
5
5
5
5
5
5
5
5
5
5
9
9
9
9
9
9
9
9
9
9
9
9
9
9
9
9
9
9
9
9
9
9
9
9
9
9
9
9
9
9
9
9
9
9
9
9
9
9
9
9
9
9
9
9
9
9
9
9
9
9
9
9
9
9
9
9
9
9
9
9
9
9
9
9
9
9
9
9
9
5
5
5
5
9
9
9
9
9
9
9
9
9
9
9
9
9
9
9
9
9
9
9
9
9
9
9
9
9
9
9
9
9
9
9
9
9
9
9
9
9
9
9
9
9
9
9
9
9
9
9
9
9
9
9
9
9
9
9
9
9
9
9
9
9
9
9
9
9
9
9
9
9
9
9
9
9
9
9
9
9
9
9
9
9
9
9
9
9
9
9
9
9
9
9
9
9
9
9
9
9
9
9
5
5
9
9
9
9
9
9
9
9
9
9
9
9
9
9
9
9
9
9
9
9
9
9
9
9
9
9
9
9
9
9
9
9
9
9
9
9
9
9
9
9
9
9
9
9
9
9
9
9
9
9
9
9
9
9
9
9
9
9
9
9
9
9
9
9
9
9
9
9
9
9
9
9
9
9
9
9
9
9
9
9
9
9
9
9
9
9
9
9
9
9
9
9
9
9
9
9
9
9
9
9
9
9
9
9
9
9
9
9
9
9
9
9
9
9
9
9
9
9
9
9
9
9
9
9
9
9
9
9
9
9
9
9
9
9
9
9
9
9
9
9
9
9
9
9
9
9
9
9
9
9
9
9
9
9
9
9
9
9
9
9
9
9
9
9
9
9
9
9
9
9
9
9
9
9
9
9
9
9
9
9
9
9
9
9
9
9
9
9
9
9
9
9
9
9
9
9
9
9
9
9
9
9
9
9
9
9
9
9
9
9
9
9
9
9
9
9
9
9
9
9
9
9
9
9
9
9
9
9
9
9
9
9
9
9
9
9
9
9
9
9
9
9
9
9
9
9
9
9
9
9
9
9
9
9
9
9
9
9
9
9
9
9
9
9
9
9
9
9
9
9
9
9
9
9
9
9
9
9
9
9
9
9
9
9
9
9
9
9
9
9
9
9
9
9
9
9
9
9
9
5
5
9
9

POINT_DATA 607
SCALARS NODE_ID int 1
LOOKUP_TABLE default
1
2
3
4
5
6
7
8
9
10
11
12
13
14
15
16
17
18
19
20
21
22
23
24
25
26
27
28
29
30
31
32
33
34
35
36
37
38
39
40
41
42
43
44
45
46
47
48
49
50
51
52
53
54
55
56
57
58
59
60
61
62
63
64
65
66
67
68
69
70
71
72
73
74
75
76
77
78
79
80
81
82
83
84
85
86
87
88
89
90
91
92
93
94
95
96
97
98
99
100
101
102
103
104
105
106
107
108
109
110
111
112
113
114
115
116
117
118
119
120
121
122
123
124
125
126
127
128
129
130
131
132
133
134
135
136
137
138
139
140
141
142
143
144
145
146
147
148
149
150
151
152
153
154
155
156
157
158
159
160
161
162
163
164
165
166
167
168
169
170
171
172
173
174
175
176
177
178
179
180
181
182
183
184
185
186
187
188
189
190
191
192
193
194
195
196
197
198
199
200
201
202
203
204
205
206
207
208
209
210
211
212
213
214
215
216
217
218
219
220
221
222
223
224
225
226
227
228
229
230
231
232
233
234
235
236
237
238
239
240
241
242
243
244
245
246
247
248
249
250
251
252
253
254
255
256
257
258
259
260
261
262
263
264
265
266
267
268
269
270
271
272
273
274
275
276
277
278
279
280
281
282
283
284
285
286
287
288
289
290
291
292
293
294
295
296
297
298
299
300
301
302
303
304
305
306
307
308
309
310
311
312
313
314
315
316
317
318
319
320
321
322
323
324
325
326
327
328
329
330
331
332
333
334
335
336
337
338
339
340
341
342
343
344
345
346
347
348
349
350
351
352
353
354
355
356
357
358
359
360
361
362
363
364
365
366
367
368
369
370
371
372
373
374
375
376
377
378
379
380
381
382
383
384
385
386
387
388
389
390
391
392
393
394
395
396
397
398
399
400
401
402
403
404
405
406
407
408
409
410
411
412
413
414
415
416
417
418
419
420
421
422
423
424
425
426
427
428
429
430
431
432
433
434
435
436
437
438
439
440
441
442
443
444
445
446
447
448
449
450
451
452
453
454
455
456
457
458
459
460
461
462
463
464
465
466
467
468
469
470
471
472
473
474
475
476
477
478
479
480
481
482
483
484
485
486
487
488
489
490
491
492
493
494
495
496
497
498
499
500
501
502
503
504
505
506
507
508
509
510
511
512
513
514
515
516
517
518
519
520
521
522
523
524
525
526
527
528
529
530
531
532
533
534
535
536
537
538
539
540
541
542
543
544
545
546
547
548
549
550
551
552
553
554
555
556
557
558
559
560
561
562
563
564
565
566
567
568
569
570
571
572
573
574
575
576
577
578
579
580
581
582
583
584
585
586
587
588
589
590
591
592
593
594
595
596
597
598
599
600
601
602
0
0
0
0
0

SCALARS Time_Step float 1
LOOKUP_TABLE default
0.0149922
0.0185038
0.0215647
0.0269052
0.0269194
0.0269194
0.0149922
0.0215647
0.0215647
0.0269052
0.0250592
0.0269194
0.0177802
0.0226736
0.0159909
0.0177802
0.0226736
0.0159909
0.0210135
0.0245874
0.0194611
0.0210135
0.0245874
0.0194611
0.0209007
0.0244403
0.0193687
0.0209007
0.0244403
0.0193687
0.0178894
0.0160889
0.0228135
0.0178894
0.0160889
0.0228135
0.0210243
0.0194785
0.0245908
0.0210243
0.0194785
0.0245908
0.0210198
0.0194712
0.0245895
0.0210198
0.0194712
0.0245895
0.0215647
0.0205798
0.0205798
0.0205798
0.0205798
0.0205798
0.0205798
0.0205798
0.0222703
0.0269147
0.0269241
0.0269241
0.0269241
0.0269241
0.0269241
0.0269241
0.0269241
0.0235441
0.0205738
0.0205738
0.0205738
0.0205738
0.0205738
0.0205738
0.0205738
0.0269241
0.0269241
0.0269241
0.0269241
0.0269241
0.0269241
0.0269241
0.0269241
0.0269241
0.0269241
0.0269241
0.0269241
0.0269241
0.0269241
0.0269241
0.0269241
0.0269241
0.0269241
0.0269241
0.0269241
0.0269241
0.0235441
0.0269241
0.0269241
0.0269241
0.0269241
0.0269241
0.0269241
0.0269241
0.0269241
0.0269241
0.0269241
0.0269241
0.0269241
0.0269241
0.0269241
0.0269241
0.0269241
0.0269241
0.0269241
0.0269241
0.0269241
0.0269241
0.0267595
0.0267595
0.0267595
0.0267595
0.0267595
0.0267595
0.0267595
0.0269241
0.0269241
0.0269241
0.0269241
0.0269241
0.0269241
0.0269241
0.0269147
0.0158358
0.0158358
0.0158358
0.0158358
0.0158358
0.0158358
0.0158358
0.0269241
0.0269241
0.0269241
0.0269241
0.0269241
0.0269241
0.0269241
0.0269241
0.0269241
0.0269241
0.0269241
0.0269241
0.0269241
0.0269241
0.0269241
0.0269241
0.0269241
0.0269241
0.0269241
0.0269241
0.0269241
0.0193186
0.0193186
0.0193186
0.0193186
0.0193186
0.0193186
0.0193186
0.0269241
0.0269241
0.0269241
0.0269241
0.0269241
0.0269241
0.0269241
0.0269147
0.0269241
0.0269241
0.0269241
0.0269241
0.0269241
0.0269241
0.0269241
0.0269241
0.0269241
0.0269241
0.0269241
0.0269241
0.0269241
0.0269241
0.0235441
0.0269241
0.0269241
0.0269241
0.0269241
0.0269241
0.0269241
0.0269241
0.0269241
0.0269241
0.0269241
0.0269241
0.0269241
0.0269241
0.0269241
0.0267575
0.0267575
0.0267575
0.0267575
0.0267575
0.0267575
0.0267575
0.0269241
0.0269241
0.0269241
0.0269241
0.0269241
0.0269241
0.0269241
0.0192308
0.0192308
0.0192308
0.0192308
0.0192308
0.0192308
0.0192308
0.0269241
0.0269241
0.0269241
0.0269241
0.0269241
0.0269241
0.0269241
0.0269241
0.0269241
0.0269241
0.0269241
0.0269241
0.0269241
0.0269241
0.0269241
0.0269241
0.0269241
0.0269241
0.0269241
0.0269241
0.0269241
0.0159332
0.0159332
0.0159332
0.0159332
0.0159332
0.0159332
0.0159332
0.0269241
0.0269241
0.0269241
0.0269241
0.0269241
0.0269241
0.0269241
0.0269241
0.0269241
0.0269241
0.0269241
0.0269241
0.0269241
0.0269241
0.0269241
0.0269241
0.0269241
0.0269241
0.0269241
0.0269241
0.0269241
0.0269241
0.0269241
0.0269241
0.0269241
0.0269241
0.0269241
0.0269241
0.0193386
0.0193386
0.0193386
0.0193386
0.0193386
0.0193386
0.0193386
0.0269241
0.0269241
0.0269241
0.0269241
0.0269241
0.0269241
0.0269241
0.0193304
0.0193304
0.0193304
0.0193304
0.0193304
0.0193304
0.0193304
0.0269241
0.0269241
0.0269241
0.0269241
0.0269241
0.0269241
0.0269241
0.0269241
0.0269241
0.0269241
0.0269241
0.0269241
0.0269241
0.0269241
0.0269241
0.0269241
0.0269241
0.0269241
0.0269241
0.0269241
0.0269241
0.0269241
0.0269241
0.0269241
0.0269241
0.0269241
0.0269241
0.0269241
0.0269241
0.0269241
0.0269241
0.0269241
0.0269241
0.0269241
0.0269241
0.0269241
0.0269241
0.0269241
0.0269241
0.0269241
0.0269241
0.0269241
0.0269241
0.0269241
0.0269241
0.0269241
0.0269241
0.0269241
0.0269241
0.0269241
0.0269241
0.0269241
0.0269241
0.0269241
0.0269241
0.0269241
0.0269241
0.0269241
0.0269241
0.0269241
0.0269241
0.0269241
0.0269241
0.0269241
0.0269241
0.0269241
0.0269241
0.0269241
0.0269241
0.0269241
0.0269241
0.0269241
0.0269241
0.0269241
0.0269241
0.0269241
0.0269241
0.0269241
0.0269241
0.0269241
0.0269241
0.0269241
0.0269241
0.0269241
0.0269241
0.0269241
0.0269241
0.0269241
0.0269241
0.0269241
0.0269241
0.0269241
0.0269241
0.0269241
0.0269241
0.0269241
0.0269241
0.0269241
0.0269241
0.0269241
0.0269241
0.0269241
0.0269241
0.0269241
0.0269241
0.0269241
0.0269241
0.0269241
0.0269241
0.0269241
0.0269241
0.0269241
0.0269241
0.0269241
0.0269241
0.0269241
0.0269241
0.0269241
0.0269241
0.0269241
0.0269241
0.0269241
0.0269241
0.0269241
0.0269241
0.0269241
0.0269241
0.0269241
0.0269241
0.0269241
0.0269241
0.0269241
0.0269241
0.0269241
0.0269241
0.0269241
0.0269241
0.0269241
0.0269241
0.0269241
0.0269241
0.0269241
0.0269241
0.0269241
0.0269241
0.0269241
0.0269241
0.0269241
0.0269241
0.0269241
0.0269241
0.0269241
0.0269241
0.0269241
0.0269241
0.0269241
0.0269241
0.0269241
0.0269241
0.0269241
0.0269241
0.0269241
0.0269241
0.0269241
0.0269241
0.0269241
0.0269241
0.0269241
0.0269241
0.0269241
0.0269241
0.0269241
0.0269241
0.0269241
0.0269241
0.0269241
0.0269241
0.0269241
0.0269241
0.0269241
0.0269241
0.0269241
0.0269241
0.0269241
0.0269241
0.0269241
0.0269241
0.0269241
0.0269241
0.0269241
0.0269241
0.0269241
0.0269241
0.0269241
0.0269241
0.0269241
0.0269241
0.0269241
0.0269241
0.0269241
0.0269241
0.0269241
0.0269241
0.0269241
0.0269241
0.0269241
0.0269241
0.0269241
0.0269241
0.0269241
0.0269241
0.0269241
0.0269241
0.0269241
0.0269241
0.0269241
0.0269241
0.0269241
0.0269241
0.0269241
0.0269241
0.0269241
0.0269241
0.0269241
0.0269241
0.0269241
0.0269241
0.0269241
0.0269241
0.0269241
0.0269241
0.0269241
0.0269241
0.0269241
0.0269241
0.0269241
0.0269241
0.0269241
0.0269241
0.0269241
0.0269241
0.0269241
0.0269241
0.0269241
0.0269241
0.0269241
0.0269241
0.0269241
0.0269241
0.0269241
0.0269241
0.0269241
0.0269241
0.0269241
0.0269241
0.0269241
0.0269241
0.0269241
0.0269241
0.0269241
0.0269241
0.0269241
0.0269241
0.0269241
0.0269241
0.0269241
0.0269241
0.0269241
0.0269241
0.0269241
0.0269241
0.0269241
0.0269241
0.0269241
0.0269241
0.0269241
0.0269241
0.0269241
0.0269241
0.0269241
0.0269241
0.0269241
0.0269241
0.0269241
0.0269241
0.0269241
0.0269241
0.0269241
0.0269241
0.0269241
0.0269241
0.0269241
0.0269241
0.0269241
0.0269241
0.0269241
0.0269241
0.0269241
0.0269241
0.0269241
0.0269241
0
0
0
0
0

SCALARS Mass_Change float 1
LOOKUP_TABLE default
0
0
0
0
0
0
0
0
0
0
0
0
0
0
0
0
0
0
0
0
0
0
0
0
0
0
0
0
0
0
0
0
0
0
0
0
0
0
0
0
0
0
0
0
0
0
0
0
0
0
0
0
0
0
0
0
0
0
0
0
0
0
0
0
0
0
0
0
0
0
0
0
0
0
0
0
0
0
0
0
0
0
0
0
0
0
0
0
0
0
0
0
0
0
0
0
0
0
0
0
0
0
0
0
0
0
0
0
0
0
0
0
0
0
0
0
0
0
0
0
0
0
0
0
0
0
0
0
0
0
0
0
0
0
0
0
0
0
0
0
0
0
0
0
0
0
0
0
0
0
0
0
0
0
0
0
0
0
0
0
0
0
0
0
0
0
0
0
0
0
0
0
0
0
0
0
0
0
0
0
0
0
0
0
0
0
0
0
0
0
0
0
0
0
0
0
0
0
0
0
0
0
0
0
0
0
0
0
0
0
0
0
0
0
0
0
0
0
0
0
0
0
0
0
0
0
0
0
0
0
0
0
0
0
0
0
0
0
0
0
0
0
0
0
0
0
0
0
0
0
0
0
0
0
0
0
0
0
0
0
0
0
0
0
0
0
0
0
0
0
0
0
0
0
0
0
0
0
0
0
0
0
0
0
0
0
0
0
0
0
0
0
0
0
0
0
0
0
0
0
0
0
0
0
0
0
0
0
0
0
0
0
0
0
0
0
0
0
0
0
0
0
0
0
0
0
0
0
0
0
0
0
0
0
0
0
0
0
0
0
0
0
0
0
0
0
0
0
0
0
0
0
0
0
0
0
0
0
0
0
0
0
0
0
0
0
0
0
0
0
0
0
0
0
0
0
0
0
0
0
0
0
0
0
0
0
0
0
0
0
0
0
0
0
0
0
0
0
0
0
0
0
0
0
0
0
0
0
0
0
0
0
0
0
0
0
0
0
0
0
0
0
0
0
0
0
0
0
0
0
0
0
0
0
0
0
0
0
0
0
0
0
0
0
0
0
0
0
0
0
0
0
0
0
0
0
0
0
0
0
0
0
0
0
0
0
0
0
0
0
0
0
0
0
0
0
0
0
0
0
0
0
0
0
0
0
0
0
0
0
0
0
0
0
0
0
0
0
0
0
0
0
0
0
0
0
0
0
0
0
0
0
0
0
0
0
0
0
0
0
0
0
0
0
0
0
0
0
0
0
0
0
0
0
0
0
0
0
0
0
0
0
0
0
0
0
0
0
0
0
0
0
0
0
0
0
0
0
0
0
0
0
0
0
0
0
0
0
0
0
0
0
0
0
0
0
0
0
0
0
0
0
0
0
0
0
0
0
0
0
0
0
0
0
0
0
0
0
0
0
0
0
0
0
0
0
0

SCALARS Nodal_Pressure float 1
LOOKUP_TABLE default
0
0
0
0
0
0
0
0
0
0
0
0
0
0
0
0
0
0
0
0
0
0
0
0
0
0
0
0
0
0
0
0
0
0
0
0
0
0
0
0
0
0
0
0
0
0
0
0
0
0
0
0
0
0
0
0
0
0
0
0
0
0
0
0
0
0
0
0
0
0
0
0
0
0
0
0
0
0
0
0
0
0
0
0
0
0
0
0
0
0
0
0
0
0
0
0
0
0
0
0
0
0
0
0
0
0
0
0
0
0
0
0
0
0
0
0
0
0
0
0
0
0
0
0
0
0
0
0
0
0
0
0
0
0
0
0
0
0
0
0
0
0
0
0
0
0
0
0
0
0
0
0
0
0
0
0
0
0
0
0
0
0
0
0
0
0
0
0
0
0
0
0
0
0
0
0
0
0
0
0
0
0
0
0
0
0
0
0
0
0
0
0
0
0
0
0
0
0
0
0
0
0
0
0
0
0
0
0
0
0
0
0
0
0
0
0
0
0
0
0
0
0
0
0
0
0
0
0
0
0
0
0
0
0
0
0
0
0
0
0
0
0
0
0
0
0
0
0
0
0
0
0
0
0
0
0
0
0
0
0
0
0
0
0
0
0
0
0
0
0
0
0
0
0
0
0
0
0
0
0
0
0
0
0
0
0
0
0
0
0
0
0
0
0
0
0
0
0
0
0
0
0
0
0
0
0
0
0
0
0
0
0
0
0
0
0
0
0
0
0
0
0
0
0
0
0
0
0
0
0
0
0
0
0
0
0
0
0
0
0
0
0
0
0
0
0
0
0
0
0
0
0
0
0
0
0
0
0
0
0
0
0
0
0
0
0
0
0
0
0
0
0
0
0
0
0
0
0
0
0
0
0
0
0
0
0
0
0
0
0
0
0
0
0
0
0
0
0
0
0
0
0
0
0
0
0
0
0
0
0
0
0
0
0
0
0
0
0
0
0
0
0
0
0
0
0
0
0
0
0
0
0
0
0
0
0
0
0
0
0
0
0
0
0
0
0
0
0
0
0
0
0
0
0
0
0
0
0
0
0
0
0
0
0
0
0
0
0
0
0
0
0
0
0
0
0
0
0
0
0
0
0
0
0
0
0
0
0
0
0
0
0
0
0
0
0
0
0
0
0
0
0
0
0
0
0
0
0
0
0
0
0
0
0
0
0
0
0
0
0
0
0
0
0
0
0
0
0
0
0
0
0
0
0
0
0
0
0
0
0
0
0
0
0
0
0
0
0
0
0
0
0
0
0
0
0
0
0
0
0
0
0
0
0
0
0
0
0
0
0
0
0
0
0
0
0
0
0
0
0
0
0
0
0
0
0
0
0
0
0
0
0
0
0
0
0
0
0
0
0
0
0
0
0
0
0
0

SCALARS Nodal_Density float 1
LOOKUP_TABLE default
0
0
0
0
0
0
0
0
0
0
0
0
0
0
0
0
0
0
0
0
0
0
0
0
0
0
0
0
0
0
0
0
0
0
0
0
0
0
0
0
0
0
0
0
0
0
0
0
0
0
0
0
0
0
0
0
0
0
0
0
0
0
0
0