# vtk DataFile Version 3.0
vtk output
ASCII
DATASET UNSTRUCTURED_GRID
FIELD FieldData 2
TIME 1 1 double
45.0181
CYCLE 1 1 int
0
POINTS 14 float
-28.7723 2.80924 -4.71497e-05
86.8869 2.83118 0.000872131
86.8864 103.14 -3.95203e-05
-28.7734 103.116 0.000742798
15.3185 2.83164 89.182
131.141 2.80934 91.1689
131.138 103.117 91.1681
15.3155 103.141 89.18
-0.000633928 -0.00165031 107.886
-0.000633928 -0.00165031 107.886
-0.000768539 -70.7081 107.886
-70.707 -0.00151569 107.886
-0.000499317 70.7048 107.887
70.7058 -0.00178492 107.886

CELLS 3 19
4 9 9 9 9
4 10 13 12 11
8 0  1  2  3  4  5  6  7

CELL_TYPES 3
9
9
12

POINT_DATA 14
SCALARS NODE_ID int 1
LOOKUP_TABLE default
1
2
3
4
5
6
7
8
9
0
0
0
0
0

VECTORS Velocity float
-4.81962 1.32603 0
1.06939 1.3253 0
1.06789 -1.07766 0
-4.82112 -1.07693 0
-0.988482 1.32489 0.371149
4.93159 1.32384 2.02932
4.93003 -1.07912 2.02808
-0.990049 -1.07807 0.369903
-1.84982e-05 -4.81564e-05 4.71637
0 0 0
0 0 0
0 0 0
0 0 0
0 0 0

VECTORS Acceleration float
5.00291 1.91092 0
-3.17391 1.91376 0
-3.16556 -1.91353 0
5.01121 -1.91641 0
3.13745 1.91041 2.53047
-4.98282 1.91959 -2.71435
-4.97476 -1.90776 -2.71
3.14546 -1.91697 2.53485
0 0 0
0 0 0
0 0 0
0 0 0
0 0 0
0 0 0

VECTORS Internal_Forces float
48.7782 18.6314 -10.7453
-30.9455 18.6591 12.5067
-30.8641 -18.6569 12.4956
48.8592 -18.685 -10.7564
30.59 18.6264 24.672
-48.5823 18.7159 -26.4648
-48.5037 -18.6006 -26.4224
30.6682 -18.6904 24.7147
0 0 0
0 0 0
0 0 0
0 0 0
0 0 0
0 0 0

CELL_DATA 3
SCALARS ELEMENT_ID int 1
LOOKUP_TABLE default
0
0
1

SCALARS PART_ID int 1
LOOKUP_TABLE default
9
9
1

SCALARS EROSION_STATUS int 1
LOOKUP_TABLE default
1
1
1

SCALARS 2DELEM_Pressure float 1
LOOKUP_TABLE default
0
0
0

SCALARS 2DELEM_Stress_X_ float 1
LOOKUP_TABLE default
0
0
0

SCALARS 2DELEM_Stress_Y_ float 1
LOOKUP_TABLE default
0
0
0

SCALARS 2DELEM_Stress_Z_ float 1
LOOKUP_TABLE default
0
0
0

SCALARS 3DELEM_Pressure float 1
LOOKUP_TABLE default
0
0
-0.00891348

SCALARS 3DELEM_Stress_X_ float 1
LOOKUP_TABLE default
0
0
0.0191591

SCALARS 3DELEM_Stress_Y_ float 1
LOOKUP_TABLE default
0
0
0.00718109

SCALARS 3DELEM_Stress_Z_ float 1
LOOKUP_TABLE default
0
0
0.000400282

