# vtk DataFile Version 3.0
vtk output
ASCII
DATASET UNSTRUCTURED_GRID
FIELD FieldData 2
TIME 1 1 double
0
CYCLE 1 1 int
0
POINTS 1296 float
-1.283 -1.283 0
-1.283 -1.283 0.6415
-1.283 -1.283 1.283
-1.283 -1.283 1.9245
-1.283 -1.283 2.566
-1.283 -1.283 3.2075
-1.283 -1.283 3.849
-1.283 -1.283 4.4905
-1.283 -1.283 5.132
-1.283 -1.283 5.7735
-1.283 -1.283 6.415
-1.283 -1.283 7.0565
-1.283 -1.283 7.698
-1.283 -1.283 8.3395
-1.283 -1.283 8.981
-1.283 -1.283 9.6225
-1.283 -0.96225 0.32075
-1.283 -0.96225 0.96225
-1.283 -0.96225 1.60375
-1.283 -0.96225 2.24525
-1.283 -0.96225 2.88675
-1.283 -0.96225 3.52825
-1.283 -0.96225 4.16975
-1.283 -0.96225 4.81125
-1.283 -0.96225 5.45275
-1.283 -0.96225 6.09425
-1.283 -0.96225 6.73575
-1.283 -0.96225 7.37725
-1.283 -0.96225 8.01875
-1.283 -0.96225 8.66025
-1.283 -0.96225 9.30175
-1.283 -0.96225 9.94326
-1.283 -0.6415 0
-1.283 -0.6415 0.6415
-1.283 -0.6415 1.283
-1.283 -0.6415 1.9245
-1.283 -0.6415 2.566
-1.283 -0.6415 3.2075
-1.283 -0.6415 3.849
-1.283 -0.6415 4.4905
-1.283 -0.6415 5.132
-1.283 -0.6415 5.7735
-1.283 -0.6415 6.415
-1.283 -0.6415 7.0565
-1.283 -0.6415 7.698
-1.283 -0.6415 8.3395
-1.283 -0.6415 8.981
-1.283 -0.6415 9.6225
-1.283 -0.32075 0.32075
-1.283 -0.32075 0.96225
-1.283 -0.32075 1.60375
-1.283 -0.32075 2.24525
-1.283 -0.32075 2.88675
-1.283 -0.32075 3.52825
-1.283 -0.32075 4.16975
-1.283 -0.32075 4.81125
-1.283 -0.32075 5.45275
-1.283 -0.32075 6.09425
-1.283 -0.32075 6.73575
-1.283 -0.32075 7.37725
-1.283 -0.32075 8.01875
-1.283 -0.32075 8.66025
-1.283 -0.32075 9.30175
-1.283 -0.32075 9.94326
-1.283 0 0
-1.283 0 0.6415
-1.283 0 1.283
-1.283 0 1.9245
-1.283 0 2.566
-1.283 0 3.2075
-1.283 0 3.849
-1.283 0 4.4905
-1.283 0 5.132
-1.283 0 5.7735
-1.283 0 6.415
-1.283 0 7.0565
-1.283 0 7.698
-1.283 0 8.3395
-1.283 0 8.981
-1.283 0 9.6225
-1.283 0.32075 0.32075
-1.283 0.32075 0.96225
-1.283 0.32075 1.60375
-1.283 0.32075 2.24525
-1.283 0.32075 2.88675
-1.283 0.32075 3.52825
-1.283 0.32075 4.16975
-1.283 0.32075 4.81125
-1.283 0.32075 5.45275
-1.283 0.32075 6.09425
-1.283 0.32075 6.73575
-1.283 0.32075 7.37725
-1.283 0.32075 8.01875
-1.283 0.32075 8.66025
-1.283 0.32075 9.30175
-1.283 0.32075 9.94326
-1.283 0.6415 0
-1.283 0.6415 0.6415
-1.283 0.6415 1.283
-1.283 0.6415 1.9245
-1.283 0.6415 2.566
-1.283 0.6415 3.2075
-1.283 0.6415 3.849
-1.283 0.6415 4.4905
-1.283 0.6415 5.132
-1.283 0.6415 5.7735
-1.283 0.6415 6.415
-1.283 0.6415 7.0565
-1.283 0.6415 7.698
-1.283 0.6415 8.3395
-1.283 0.6415 8.981
-1.283 0.6415 9.6225
-1.283 0.96225 0.32075
-1.283 0.96225 0.96225
-1.283 0.96225 1.60375
-1.283 0.96225 2.24525
-1.283 0.96225 2.88675
-1.283 0.96225 3.52825
-1.283 0.96225 4.16975
-1.283 0.96225 4.81125
-1.283 0.96225 5.45275
-1.283 0.96225 6.09425
-1.283 0.96225 6.73575
-1.283 0.96225 7.37725
-1.283 0.96225 8.01875
-1.283 0.96225 8.66025
-1.283 0.96225 9.30175
-1.283 0.96225 9.94326
-1.283 1.283 0
-1.283 1.283 0.6415
-1.283 1.283 1.283
-1.283 1.283 1.9245
-1.283 1.283 2.566
-1.283 1.283 3.2075
-1.283 1.283 3.849
-1.283 1.283 4.4905
-1.283 1.283 5.132
-1.283 1.283 5.7735
-1.283 1.283 6.415
-1.283 1.283 7.0565
-1.283 1.283 7.698
-1.283 1.283 8.3395
-1.283 1.283 8.981
-1.283 1.283 9.6225
-0.96225 -1.283 0.32075
-0.96225 -1.283 0.96225
-0.96225 -1.283 1.60375
-0.96225 -1.283 2.24525
-0.96225 -1.283 2.88675
-0.96225 -1.283 3.52825
-0.96225 -1.283 4.16975
-0.96225 -1.283 4.81125
-0.96225 -1.283 5.45275
-0.96225 -1.283 6.09425
-0.96225 -1.283 6.73575
-0.96225 -1.283 7.37725
-0.96225 -1.283 8.01875
-0.96225 -1.283 8.66025
-0.96225 -1.283 9.30175
-0.96225 -1.283 9.94326
-0.96225 -0.96225 0
-0.96225 -0.96225 0.6415
-0.96225 -0.96225 1.283
-0.96225 -0.96225 1.9245
-0.96225 -0.96225 2.566
-0.96225 -0.96225 3.2075
-0.96225 -0.96225 3.849
-0.96225 -0.96225 4.4905
-0.96225 -0.96225 5.132
-0.96225 -0.96225 5.7735
-0.96225 -0.96225 6.415
-0.96225 -0.96225 7.0565
-0.96225 -0.96225 7.698
-0.96225 -0.96225 8.3395
-0.96225 -0.96225 8.981
-0.96225 -0.96225 9.6225
-0.96225 -0.6415 0.32075
-0.96225 -0.6415 0.96225
-0.96225 -0.6415 1.60375
-0.96225 -0.6415 2.24525
-0.96225 -0.6415 2.88675
-0.96225 -0.6415 3.52825
-0.96225 -0.6415 4.16975
-0.96225 -0.6415 4.81125
-0.96225 -0.6415 5.45275
-0.96225 -0.6415 6.09425
-0.96225 -0.6415 6.73575
-0.96225 -0.6415 7.37725
-0.96225 -0.6415 8.01875
-0.96225 -0.6415 8.66025
-0.96225 -0.6415 9.30175
-0.96225 -0.6415 9.94326
-0.96225 -0.32075 0
-0.96225 -0.32075 0.6415
-0.96225 -0.32075 1.283
-0.96225 -0.32075 1.9245
-0.96225 -0.32075 2.566
-0.96225 -0.32075 3.2075
-0.96225 -0.32075 3.849
-0.96225 -0.32075 4.4905
-0.96225 -0.32075 5.132
-0.96225 -0.32075 5.7735
-0.96225 -0.32075 6.415
-0.96225 -0.32075 7.0565
-0.96225 -0.32075 7.698
-0.96225 -0.32075 8.3395
-0.96225 -0.32075 8.981
-0.96225 -0.32075 9.6225
-0.96225 0 0.32075
-0.96225 0 0.96225
-0.96225 0 1.60375
-0.96225 0 2.24525
-0.96225 0 2.88675
-0.96225 0 3.52825
-0.96225 0 4.16975
-0.96225 0 4.81125
-0.96225 0 5.45275
-0.96225 0 6.09425
-0.96225 0 6.73575
-0.96225 0 7.37725
-0.96225 0 8.01875
-0.96225 0 8.66025
-0.96225 0 9.30175
-0.96225 0 9.94326
-0.96225 0.32075 0
-0.96225 0.32075 0.6415
-0.96225 0.32075 1.283
-0.96225 0.32075 1.9245
-0.96225 0.32075 2.566
-0.96225 0.32075 3.2075
-0.96225 0.32075 3.849
-0.96225 0.32075 4.4905
-0.96225 0.32075 5.132
-0.96225 0.32075 5.7735
-0.96225 0.32075 6.415
-0.96225 0.32075 7.0565
-0.96225 0.32075 7.698
-0.96225 0.32075 8.3395
-0.96225 0.32075 8.981
-0.96225 0.32075 9.6225
-0.96225 0.6415 0.32075
-0.96225 0.6415 0.96225
-0.96225 0.6415 1.60375
-0.96225 0.6415 2.24525
-0.96225 0.6415 2.88675
-0.96225 0.6415 3.52825
-0.96225 0.6415 4.16975
-0.96225 0.6415 4.81125
-0.96225 0.6415 5.45275
-0.96225 0.6415 6.09425
-0.96225 0.6415 6.73575
-0.96225 0.6415 7.37725
-0.96225 0.6415 8.01875
-0.96225 0.6415 8.66025
-0.96225 0.6415 9.30175
-0.96225 0.6415 9.94326
-0.96225 0.96225 0
-0.96225 0.96225 0.6415
-0.96225 0.96225 1.283
-0.96225 0.96225 1.9245
-0.96225 0.96225 2.566
-0.96225 0.96225 3.2075
-0.96225 0.96225 3.849
-0.96225 0.96225 4.4905
-0.96225 0.96225 5.132
-0.96225 0.96225 5.7735
-0.96225 0.96225 6.415
-0.96225 0.96225 7.0565
-0.96225 0.96225 7.698
-0.96225 0.96225 8.3395
-0.96225 0.96225 8.981
-0.96225 0.96225 9.6225
-0.96225 1.283 0.32075
-0.96225 1.283 0.96225
-0.96225 1.283 1.60375
-0.96225 1.283 2.24525
-0.96225 1.283 2.88675
-0.96225 1.283 3.52825
-0.96225 1.283 4.16975
-0.96225 1.283 4.81125
-0.96225 1.283 5.45275
-0.96225 1.283 6.09425
-0.96225 1.283 6.73575
-0.96225 1.283 7.37725
-0.96225 1.283 8.01875
-0.96225 1.283 8.66025
-0.96225 1.283 9.30175
-0.96225 1.283 9.94326
-0.6415 -1.283 0
-0.6415 -1.283 0.6415
-0.6415 -1.283 1.283
-0.6415 -1.283 1.9245
-0.6415 -1.283 2.566
-0.6415 -1.283 3.2075
-0.6415 -1.283 3.849
-0.6415 -1.283 4.4905
-0.6415 -1.283 5.132
-0.6415 -1.283 5.7735
-0.6415 -1.283 6.415
-0.6415 -1.283 7.0565
-0.6415 -1.283 7.698
-0.6415 -1.283 8.3395
-0.6415 -1.283 8.981
-0.6415 -1.283 9.6225
-0.6415 -0.96225 0.32075
-0.6415 -0.96225 0.96225
-0.6415 -0.96225 1.60375
-0.6415 -0.96225 2.24525
-0.6415 -0.96225 2.88675
-0.6415 -0.96225 3.52825
-0.6415 -0.96225 4.16975
-0.6415 -0.96225 4.81125
-0.6415 -0.96225 5.45275
-0.6415 -0.96225 6.09425
-0.6415 -0.96225 6.73575
-0.6415 -0.96225 7.37725
-0.6415 -0.96225 8.01875
-0.6415 -0.96225 8.66025
-0.6415 -0.96225 9.30175
-0.6415 -0.96225 9.94326
-0.6415 -0.6415 0
-0.6415 -0.6415 0.6415
-0.6415 -0.6415 1.283
-0.6415 -0.6415 1.9245
-0.6415 -0.6415 2.566
-0.6415 -0.6415 3.2075
-0.6415 -0.6415 3.849
-0.6415 -0.6415 4.4905
-0.6415 -0.6415 5.132
-0.6415 -0.6415 5.7735
-0.6415 -0.6415 6.415
-0.6415 -0.6415 7.0565
-0.6415 -0.6415 7.698
-0.6415 -0.6415 8.3395
-0.6415 -0.6415 8.981
-0.6415 -0.6415 9.6225
-0.6415 -0.32075 0.32075
-0.6415 -0.32075 0.96225
-0.6415 -0.32075 1.60375
-0.6415 -0.32075 2.24525
-0.6415 -0.32075 2.88675
-0.6415 -0.32075 3.52825
-0.6415 -0.32075 4.16975
-0.6415 -0.32075 4.81125
-0.6415 -0.32075 5.45275
-0.6415 -0.32075 6.09425
-0.6415 -0.32075 6.73575
-0.6415 -0.32075 7.37725
-0.6415 -0.32075 8.01875
-0.6415 -0.32075 8.66025
-0.6415 -0.32075 9.30175
-0.6415 -0.32075 9.94326
-0.6415 0 0
-0.6415 0 0.6415
-0.6415 0 1.283
-0.6415 0 1.9245
-0.6415 0 2.566
-0.6415 0 3.2075
-0.6415 0 3.849
-0.6415 0 4.4905
-0.6415 0 5.132
-0.6415 0 5.7735
-0.6415 0 6.415
-0.6415 0 7.0565
-0.6415 0 7.698
-0.6415 0 8.3395
-0.6415 0 8.981
-0.6415 0 9.6225
-0.6415 0.32075 0.32075
-0.6415 0.32075 0.96225
-0.6415 0.32075 1.60375
-0.6415 0.32075 2.24525
-0.6415 0.32075 2.88675
-0.6415 0.32075 3.52825
-0.6415 0.32075 4.16975
-0.6415 0.32075 4.81125
-0.6415 0.32075 5.45275
-0.6415 0.32075 6.09425
-0.6415 0.32075 6.73575
-0.6415 0.32075 7.37725
-0.6415 0.32075 8.01875
-0.6415 0.32075 8.66025
-0.6415 0.32075 9.30175
-0.6415 0.32075 9.94326
-0.6415 0.6415 0
-0.6415 0.6415 0.6415
-0.6415 0.6415 1.283
-0.6415 0.6415 1.9245
-0.6415 0.6415 2.566
-0.6415 0.6415 3.2075
-0.6415 0.6415 3.849
-0.6415 0.6415 4.4905
-0.6415 0.6415 5.132
-0.6415 0.6415 5.7735
-0.6415 0.6415 6.415
-0.6415 0.6415 7.0565
-0.6415 0.6415 7.698
-0.6415 0.6415 8.3395
-0.6415 0.6415 8.981
-0.6415 0.6415 9.6225
-0.6415 0.96225 0.32075
-0.6415 0.96225 0.96225
-0.6415 0.96225 1.60375
-0.6415 0.96225 2.24525
-0.6415 0.96225 2.88675
-0.6415 0.96225 3.52825
-0.6415 0.96225 4.16975
-0.6415 0.96225 4.81125
-0.6415 0.96225 5.45275
-0.6415 0.96225 6.09425
-0.6415 0.96225 6.73575
-0.6415 0.96225 7.37725
-0.6415 0.96225 8.01875
-0.6415 0.96225 8.66025
-0.6415 0.96225 9.30175
-0.6415 0.96225 9.94326
-0.6415 1.283 0
-0.6415 1.283 0.6415
-0.6415 1.283 1.283
-0.6415 1.283 1.9245
-0.6415 1.283 2.566
-0.6415 1.283 3.2075
-0.6415 1.283 3.849
-0.6415 1.283 4.4905
-0.6415 1.283 5.132
-0.6415 1.283 5.7735
-0.6415 1.283 6.415
-0.6415 1.283 7.0565
-0.6415 1.283 7.698
-0.6415 1.283 8.3395
-0.6415 1.283 8.981
-0.6415 1.283 9.6225
-0.32075 -1.283 0.32075
-0.32075 -1.283 0.96225
-0.32075 -1.283 1.60375
-0.32075 -1.283 2.24525
-0.32075 -1.283 2.88675
-0.32075 -1.283 3.52825
-0.32075 -1.283 4.16975
-0.32075 -1.283 4.81125
-0.32075 -1.283 5.45275
-0.32075 -1.283 6.09425
-0.32075 -1.283 6.73575
[...]
POINT_DATA 1296
SCALARS NODE_ID int 1
LOOKUP_TABLE default
593453
593455
593457
593459
593461
593463
593465
593467
593469
593471
593473
593475
593477
593479
593481
593483
593655
593657
593659
593661
593663
593665
593667
593669
593671
593673
593675
593677
593679
593681
593683
593685
593855
593857
593859
593861
593863
593865
593867
593869
593871
593873
593875
593877
593879
593881
593883
593885
594057
594059
594061
594063
594065
594067
594069
594071
594073
594075
594077
594079
594081
594083
594085
594087
594257
594259
594261
594263
594265
594267
594269
594271
594273
594275
594277
594279
594281
594283
594285
594287
594459
594461
594463
594465
594467
594469
594471
594473
594475
594477
594479
594481
594483
594485
594487
594489
594659
594661
594663
594665
594667
594669
594671
594673
594675
594677
594679
594681
594683
594685
594687
594689
594861
594863
594865
594867
594869
594871
594873
594875
594877
594879
594881
594883
594885
594887
594889
594891
595061
595063
595065
595067
595069
595071
595073
595075
595077
595079
595081
595083
595085
595087
595089
595091
609735
609737
609739
609741
609743
609745
609747
609749
609751
609753
609755
609757
609759
609761
609763
609765
609935
609937
609939
609941
609943
609945
609947
609949
609951
609953
609955
609957
609959
609961
609963
609965
610137
610139
610141
610143
610145
610147
610149
610151
610153
610155
610157
610159
610161
610163
610165
610167
610337
610339
610341
610343
610345
610347
610349
610351
610353
610355
610357
610359
610361
610363
610365
610367
610539
610541
610543
610545
610547
610549
610551
610553
610555
610557
610559
610561
610563
610565
610567
610569
610739
610741
610743
610745
610747
610749
610751
610753
610755
610757
610759
610761
610763
610765
610767
610769
610941
610943
610945
610947
610949
610951
610953
610955
610957
610959
610961
610963
610965
610967
610969
610971
611141
611143
611145
611147
611149
611151
611153
611155
611157
611159
611161
611163
611165
611167
611169
611171
611343
611345
611347
611349
611351
611353
611355
611357
611359
611361
611363
611365
611367
611369
611371
611373
626015
626017
626019
626021
626023
626025
626027
626029
626031
626033
626035
626037
626039
626041
626043
626045
626217
626219
626221
626223
626225
626227
626229
626231
626233
626235
626237
626239
626241
626243
626245
626247
626417
626419
626421
626423
626425
626427
626429
626431
626433
626435
626437
626439
626441
626443
626445
626447
626619
626621
626623
626625
626627
626629
626631
626633
626635
626637
626639
626641
626643
626645
626647
626649
626819
626821
626823
626825
626827
626829
626831
626833
626835
626837
626839
626841
626843
626845
626847
626849
627021
627023
627025
627027
627029
627031
627033
627035
627037
627039
627041
627043
627045
627047
627049
627051
627221
627223
627225
627227
627229
627231
627233
627235
627237
627239
627241
627243
627245
627247
627249
627251
627423
627425
627427
627429
627431
627433
627435
627437
627439
627441
627443
627445
627447
627449
627451
627453
627623
627625
627627
627629
627631
627633
627635
627637
627639
627641
627643
627645
627647
627649
627651
627653
642297
642299
642301
642303
642305
642307
642309
642311
642313
642315
642317
642319
642321
642323
642325
642327
642497
642499
642501
642503
642505
642507
642509
642511
642513
642515
642517
642519
642521
642523
642525
642527
642699
642701
642703
642705
642707
642709
642711
642713
642715
642717
642719
642721
642723
642725
642727
642729
642899
642901
642903
642905
642907
642909
642911
642913
642915
642917
642919
642921
642923
642925
642927
642929
643101
643103
643105
643107
643109
643111
643113
643115
643117
643119
643121
643123
643125
643127
643129
643131
643301
643303
643305
643307
643309
643311
643313
643315
643317
643319
643321
643323
643325
643327
643329
643331
643503
643505
643507
643509
643511
643513
643515
643517
643519
643521
643523
643525
643527
643529
643531
643533
643703
643705
643707
643709
643711
643713
643715
643717
643719
643721
643723
643725
643727
643729
643731
643733
643905
643907
643909
643911
643913
643915
643917
643919
643921
643923
643925
643927
643929
643931
643933
643935
658577
658579
658581
658583
658585
658587
658589
658591
658593
658595
658597
658599
658601
658603
658605
658607
658779
658781
658783
658785
658787
658789
658791
658793
658795
658797
658799
658801
658803
658805
658807
658809
658979
658981
658983
658985
658987
658989
658991
658993
658995
658997
658999
659001
659003
659005
659007
659009
659181
659183
659185
659187
659189
659191
659193
659195
659197
659199
659201
659203
659205
659207
659209
659211
659381
659383
659385
659387
659389
659391
659393
659395
659397
659399
659401
659403
659405
659407
659409
659411
659583
659585
659587
659589
659591
659593
659595
659597
659599
659601
659603
659605
659607
659609
659611
659613
659783
659785
659787
659789
659791
659793
659795
659797
659799
659801
659803
659805
659807
659809
659811
659813
659985
659987
659989
659991
659993
659995
659997
659999
660001
660003
660005
660007
660009
660011
660013
660015
660185
660187
660189
660191
660193
660195
660197
660199
660201
660203
660205
660207
660209
660211
660213
660215
674859
674861
674863
674865
674867
674869
674871
674873
674875
674877
674879
674881
674883
674885
674887
674889
675059
675061
675063
675065
675067
675069
675071
675073
675075
675077
675079
675081
675083
675085
675087
675089
675261
675263
675265
675267
675269
675271
675273
675275
675277
675279
675281
675283
675285
675287
675289
675291
675461
675463
675465
675467
675469
675471
675473
675475
675477
675479
675481
675483
675485
675487
675489
675491
675663
675665
675667
675669
675671
675673
675675
675677
675679
675681
675683
675685
675687
675689
675691
675693
675863
675865
675867
675869
675871
675873
675875
675877
675879
675881
675883
675885
675887
675889
675891
675893
676065
676067
676069
676071
676073
676075
676077
676079
676081
676083
676085
676087
676089
676091
676093
676095
676265
676267
676269
676271
676273
676275
676277
676279
676281
676283
676285
676287
676289
676291
676293
676295
676467
676469
676471
676473
676475
676477
676479
676481
676483
676485
676487
676489
676491
676493
676495
676497
691139
691141
691143
691145
691147
691149
691151
691153
691155
691157
691159
691161
691163
691165
691167
691169
691341
691343
691345
691347
691349
691351
691353
691355
691357
691359
691361
691363
691365
691367
691369
691371
691541
691543
691545
691547
691549
691551
691553
691555
691557
691559
691561
691563
691565
691567
691569
691571
691743
691745
691747
691749
691751
691753
691755
691757
691759
691761
691763
691765
691767
691769
691771
691773
691943
691945
691947
691949
691951
691953
691955
691957
691959
691961
691963
691965
691967
691969
691971
691973
692145
692147
692149
692151
692153
692155
692157
692159
692161
692163
692165
692167
692169
692171
692173
692175
692345
692347
692349
692351
692353
692355
692357
692359
692361
692363
692365
692367
692369
692371
692373
692375
692547
692549
692551
692553
692555
692557
692559
692561
692563
692565
692567
692569
692571
692573
692575
692577
692747
692749
692751
692753
692755
692757
692759
692761
692763
692765
692767
692769
692771
692773
692775
692777
707421
707423
707425
707427
707429
707431
707433
707435
707437
707439
707441
707443
707445
707447
707449
707451
707621
707623
707625
707627
707629
707631
707633
707635
707637
707639
707641
707643
707645
707647
707649
707651
707823
707825
707827
707829
707831
707833
707835
707837
707839
707841
707843
707845
707847
707849
707851
707853
708023
708025
708027
708029
708031
708033
708035
708037
708039
708041
708043
708045
708047
708049
708051
708053
708225
708227
708229
708231
708233
708235
708237
708239
708241
708243
708245
708247
708249
708251
708253
708255
708425
708427
708429
708431
708433
708435
708437
708439
708441
708443
708445
708447
708449
708451
708453
708455
708627
708629
708631
708633
708635
708637
708639
708641
708643
708645
708647
708649
708651
708653
708655
708657
708827
708829
708831
708833
708835
708837
708839
708841
708843
708845
708847
708849
708851
708853
708855
708857
709029
709031
709033
709035
709037
709039
709041
709043
709045
709047
709049
709051
709053
709055
709057
709059
723701
723703
723705
723707
723709
723711
723713
723715
723717
723719
723721
723723
723725
723727
723729
723731
723903
723905
723907
723909
723911
723913
723915
723917
723919
723921
723923
723925
723927
723929
723931
723933
724103
724105
724107
724109
724111
724113
724115
724117
724119
724121
724123
724125
724127
724129
724131
724133
724305
724307
724309
724311
724313
724315
724317
724319
724321
724323
724325
724327
724329
724331
724333
724335
724505
724507
724509
724511
724513
724515
724517
724519
724521
724523
724525
724527
724529
724531
724533
724535
724707
724709
724711
724713
724715
724717
724719
724721
724723
724725
724727
724729
724731
724733
724735
724737
724907
724909
724911
724913
724915
724917
724919
724921
724923
724925
724927
724929
724931
724933
724935
724937
725109
725111
725113
725115
725117
725119
725121
725123
725125
725127
725129
725131
725133
725135
725137
725139
725309
725311
725313
725315
725317
725319
725321
725323
725325
725327
725329
725331
725333
725335
725337
725339

VECTORS Velocity float
0 0 0
0 0 -0.03815
0 0 -0.03815
0 0 -0.03815
0 0 -0.03815
0 0 -0.03815
0 0 -0.03815
0 0 -0.03815
0 0 -0.03815
0 0 -0.03815
0 0 -0.03815
0 0 -0.03815
0 0 -0.03815
0 0 -0.03815
0 0 -0.03815
0 0 -0.03815
0 0 -0.03815
0 0 -0.03815
0 0 -0.03815
0 0 -0.03815
0 0 -0.03815
0 0 -0.03815
0 0 -0.03815
0 0 -0.03815
0 0 -0.03815
0 0 -0.03815
0 0 -0.03815
0 0 -0.03815
0 0 -0.03815
0 0 -0.03815
0 0 -0.03815
0 0 -0.03815
0 0 0
0 0 -0.03815
0 0 -0.03815
0 0 -0.03815
0 0 -0.03815
0 0 -0.03815
0 0 -0.03815
0 0 -0.03815
0 0 -0.03815
0 0 -0.03815
0 0 -0.03815
0 0 -0.03815
0 0 -0.03815
0 0 -0.03815
0 0 -0.03815
0 0 -0.03815
0 0 -0.03815
0 0 -0.03815
0 0 -0.03815
0 0 -0.03815
0 0 -0.03815
0 0 -0.03815
0 0 -0.03815
0 0 -0.03815
0 0 -0.03815
0 0 -0.03815
0 0 -0.03815
0 0 -0.03815
0 0 -0.03815
0 0 -0.03815
0 0 -0.03815
0 0 -0.03815
0 0 0
0 0 -0.03815
0 0 -0.03815
0 0 -0.03815
0 0 -0.03815
0 0 -0.03815
0 0 -0.03815
0 0 -0.03815
0 0 -0.03815
0 0 -0.03815
0 0 -0.03815
0 0 -0.03815
0 0 -0.03815
0 0 -0.03815
0 0 -0.03815
0 0 -0.03815
0 0 -0.03815
0 0 -0.03815
0 0 -0.03815
0 0 -0.03815
0 0 -0.03815
0 0 -0.03815
0 0 -0.03815
0 0 -0.03815
0 0 -0.03815
0 0 -0.03815
0 0 -0.03815
0 0 -0.03815
0 0 -0.03815
0 0 -0.03815
0 0 -0.03815
0 0 -0.03815
0 0 0
0 0 -0.03815
0 0 -0.03815
0 0 -0.03815
0 0 -0.03815
0 0 -0.03815
0 0 -0.03815
0 0 -0.03815
0 0 -0.03815
0 0 -0.03815
0 0 -0.03815
0 0 -0.03815
0 0 -0.03815
0 0 -0.03815
0 0 -0.03815
0 0 -0.03815
0 0 -0.03815
0 0 -0.03815
0 0 -0.03815
0 0 -0.03815
0 0 -0.03815
0 0 -0.03815
0 0 -0.03815
0 0 -0.03815
0 0 -0.03815
0 0 -0.03815
0 0 -0.03815
0 0 -0.03815
0 0 -0.03815
0 0 -0.03815
0 0 -0.03815
0 0 -0.03815
0 0 0
0 0 -0.03815
0 0 -0.03815
0 0 -0.03815
0 0 -0.03815
0 0 -0.03815
0 0 -0.03815
0 0 -0.03815
0 0 -0.03815
0 0 -0.03815
0 0 -0.03815
0 0 -0.03815
0 0 -0.03815
0 0 -0.03815
0 0 -0.03815
0 0 -0.03815
0 0 -0.03815
0 0 -0.03815
0 0 -0.03815
0 0 -0.03815
0 0 -0.03815
0 0 -0.03815
0 0 -0.03815
0 0 -0.03815
0 0 -0.03815
0 0 -0.03815
0 0 -0.03815
0 0 -0.03815
0 0 -0.03815
0 0 -0.03815
0 0 -0.03815
0 0 -0.03815
0 0 0
0 0 -0.03815
0 0 -0.03815
0 0 -0.03815
0 0 -0.03815
0 0 -0.03815
0 0 -0.03815
0 0 -0.03815
0 0 -0.03815
0 0 -0.03815
0 0 -0.03815
0 0 -0.03815
0 0 -0.03815
0 0 -0.03815
0 0 -0.03815
0 0 -0.03815
0 0 -0.03815
0 0 -0.03815
0 0 -0.03815
0 0 -0.03815
0 0 -0.03815
0 0 -0.03815
0 0 -0.03815
0 0 -0.03815
0 0 -0.03815
0 0 -0.03815
0 0 -0.03815
0 0 -0.03815
0 0 -0.03815
0 0 -0.03815
0 0 -0.03815
0 0 -0.03815
0 0 0
0 0 -0.03815
0 0 -0.03815
0 0 -0.03815
0 0 -0.03815
0 0 -0.03815
0 0 -0.03815
0 0 -0.03815
0 0 -0.03815
0 0 -0.03815
0 0 -0.03815
0 0 -0.03815
0 0 -0.03815
0 0 -0.03815
0 0 -0.03815
0 0 -0.03815
0 0 -0.03815
0 0 -0.03815
0 0 -0.03815
0 0 -0.03815
0 0 -0.03815
0 0 -0.03815
0 0 -0.03815
0 0 -0.03815
0 0 -0.03815
0 0 -0.03815
0 0 -0.03815
0 0 -0.03815
0 0 -0.03815
0 0 -0.03815
0 0 -0.03815
0 0 -0.03815
0 0 0
0 0 -0.03815
0 0 -0.03815
0 0 -0.03815
0 0 -0.03815
0 0 -0.03815
0 0 -0.03815
0 0 -0.03815
0 0 -0.03815
0 0 -0.03815
0 0 -0.03815
0 0 -0.03815
0 0 -0.03815
0 0 -0.03815
0 0 -0.03815
0 0 -0.03815
0 0 -0.03815
0 0 -0.03815
0 0 -0.03815
0 0 -0.03815
0 0 -0.03815
0 0 -0.03815
0 0 -0.03815
0 0 -0.03815
0 0 -0.03815
0 0 -0.03815
0 0 -0.03815
0 0 -0.03815
0 0 -0.03815
0 0 -0.03815
0 0 -0.03815
0 0 -0.03815
0 0 0
0 0 -0.03815
0 0 -0.03815
0 0 -0.03815
0 0 -0.03815
0 0 -0.03815
0 0 -0.03815
0 0 -0.03815
0 0 -0.03815
0 0 -0.03815
0 0 -0.03815
0 0 -0.03815
0 0 -0.03815
0 0 -0.03815
0 0 -0.03815
0 0 -0.03815
0 0 -0.03815
0 0 -0.03815
0 0 -0.03815
0 0 -0.03815
0 0 -0.03815
0 0 -0.03815
0 0 -0.03815
0 0 -0.03815
0 0 -0.03815
0 0 -0.03815
0 0 -0.03815
0 0 -0.03815
0 0 -0.03815
0 0 -0.03815
0 0 -0.03815
0 0 -0.03815
0 0 0
0 0 -0.03815
0 0 -0.03815
0 0 -0.03815
0 0 -0.03815
0 0 -0.03815
0 0 -0.03815
0 0 -0.03815
0 0 -0.03815
0 0 -0.03815
0 0 -0.03815
0 0 -0.03815
0 0 -0.03815
0 0 -0.03815
0 0 -0.03815
0 0 -0.03815
0 0 -0.03815
0 0 -0.03815
0 0 -0.03815
0 0 -0.03815
0 0 -0.03815
0 0 -0.03815
0 0 -0.03815
0 0 -0.03815
0 0 -0.03815
0 0 -0.03815
0 0 -0.03815
0 0 -0.03815
0 0 -0.03815
0 0 -0.03815
0 0 -0.03815
0 0 -0.03815
0 0 0
0 0 -0.03815
0 0 -0.03815
0 0 -0.03815
0 0 -0.03815
0 0 -0.03815
0 0 -0.03815
0 0 -0.03815
0 0 -0.03815
0 0 -0.03815
0 0 -0.03815
0 0 -0.03815
0 0 -0.03815
0 0 -0.03815
0 0 -0.03815
0 0 -0.03815
0 0 -0.03815
0 0 -0.03815
0 0 -0.03815
0 0 -0.03815
0 0 -0.03815
0 0 -0.03815
0 0 -0.03815
0 0 -0.03815
0 0 -0.03815
0 0 -0.03815
0 0 -0.03815
0 0 -0.03815
0 0 -0.03815
0 0 -0.03815
0 0 -0.03815
0 0 -0.03815
0 0 0
0 0 -0.03815
0 0 -0.03815
0 0 -0.03815
0 0 -0.03815
0 0 -0.03815
0 0 -0.03815
0 0 -0.03815
0 0 -0.03815
0 0 -0.03815
0 0 -0.03815
0 0 -0.03815
0 0 -0.03815
0 0 -0.03815
0 0 -0.03815
0 0 -0.03815
0 0 -0.03815
0 0 -0.03815
0 0 -0.03815
0 0 -0.03815
0 0 -0.03815
0 0 -0.03815
0 0 -0.03815
0 0 -0.03815
0 0 -0.03815
0 0 -0.03815
0 0 -0.03815
0 0 -0.03815
0 0 -0.03815
0 0 -0.03815
0 0 -0.03815
0 0 -0.03815
0 0 0
0 0 -0.03815
0 0 -0.03815
0 0 -0.03815
0 0 -0.03815
0 0 -0.03815
0 0 -0.03815
0 0 -0.03815
0 0 -0.03815
0 0 -0.03815
0 0 -0.03815
0 0 -0.03815
0 0 -0.03815
0 0 -0.03815
0 0 -0.03815
0 0 -0.03815
0 0 -0.03815
0 0 -0.03815
0 0 -0.03815
0 0 -0.03815
0 0 -0.03815
0 0 -0.03815
0 0 -0.03815
0 0 -0.03815
0 0 -0.03815
0 0 -0.03815
0 0 -0.03815
0 0 -0.03815
0 0 -0.03815
0 0 -0.03815
0 0 -0.03815
0 0 -0.03815
0 0 0
0 0 -0.03815
0 0 -0.03815
0 0 -0.03815
0 0 -0.03815
0 0 -0.03815
0 0 -0.03815
0 0 -0.03815
0 0 -0.03815
0 0 -0.03815
0 0 -0.03815
0 0 -0.03815
0 0 -0.03815
0 0 -0.03815
0 0 -0.03815
0 0 -0.03815
0 0 -0.03815
0 0 -0.03815
0 0 -0.03815
0 0 -0.03815
0 0 -0.03815
0 0 -0.03815
0 0 -0.03815
0 0 -0.03815
0 0 -0.03815
0 0 -0.03815
0 0 -0.03815
0 0 -0.03815
0 0 -0.03815
0 0 -0.03815
0 0 -0.03815
0 0 -0.03815
0 0 0
0 0 -0.03815
0 0 -0.03815
0 0 -0.03815
0 0 -0.03815
0 0 -0.03815
0 0 -0.03815
0 0 -0.03815
0 0 -0.03815
0 0 -0.03815
0 0 -0.03815
0 0 -0.03815
0 0 -0.03815
0 0 -0.03815
0 0 -0.03815
0 0 -0.03815
0 0 -0.03815
0 0 -0.03815
0 0 -0.03815
0 0 -0.03815
0 0 -0.03815
0 0 -0.03815
0 0 -0.03815
0 0 -0.03815
0 0 -0.03815
0 0 -0.03815
0 0 -0.03815
0 0 -0.03815
0 0 -0.03815
0 0 -0.03815
0 0 -0.03815
0 0 -0.03815
0 0 0
0 0 -0.03815
0 0 -0.03815
0 0 -0.03815
0 0 -0.03815
0 0 -0.03815
0 0 -0.03815
0 0 -0.03815
0 0 -0.03815
0 0 -0.03815
0 0 -0.03815
0 0 -0.03815
0 0 -0.03815
0 0 -0.03815
0 0 -0.03815
0 0 -0.03815
0 0 -0.03815
0 0 -0.03815
0 0 -0.03815
0 0 -0.03815
0 0 -0.03815
0 0 -0.03815
0 0 -0.03815
0 0 -0.03815
0 0 -0.03815
0 0 -0.03815
0 0 -0.03815
0 0 -0.03815
0 0 -0.03815
0 0 -0.03815
0 0 -0.03815
0 0 -0.03815
0 0 0
0 0 -0.03815
0 0 -0.03815
0 0 -0.03815
0 0 -0.03815
0 0 -0.03815
0 0 -0.03815
0 0 -0.03815
0 0 -0.03815
0 0 -0.03815
0 0 -0.03815
0 0 -0.03815
0 0 -0.03815
0 0 -0.03815
0 0 -0.03815
0 0 -0.03815
0 0 -0.03815
0 0 -0.03815
0 0 -0.03815
0 0 -0.03815
0 0 -0.03815
0 0 -0.03815
0 0 -0.03815
0 0 -0.03815
0 0 -0.03815
0 0 -0.03815
0 0 -0.03815
0 0 -0.03815
0 0 -0.03815
0 0 -0.03815
0 0 -0.03815
0 0 -0.03815
0 0 0
0 0 -0.03815
0 0 -0.03815
0 0 -0.03815
0 0 -0.03815
0 0 -0.03815
0 0 -0.03815
0 0 -0.03815
0 0 -0.03815
0 0 -0.03815
0 0 -0.03815
0 0 -0.03815
0 0 -0.03815
0 0 -0.03815
0 0 -0.03815
0 0 -0.03815
0 0 -0.03815
0 0 -0.03815
0 0 -0.03815
0 0 -0.03815
0 0 -0.03815
0 0 -0.03815
0 0 -0.03815
0 0 -0.03815
0 0 -0.03815
0 0 -0.03815
0 0 -0.03815
0 0 -0.03815
0 0 -0.03815
0 0 -0.03815
0 0 -0.03815
0 0 -0.03815
0 0 0
0 0 -0.03815
0 0 -0.03815
0 0 -0.03815
0 0 -0.03815
0 0 -0.03815
0 0 -0.03815
0 0 -0.03815
0 0 -0.03815
0 0 -0.03815
0 0 -0.03815
0 0 -0.03815
0 0 -0.03815
0 0 -0.03815
0 0 -0.03815
0 0 -0.03815
0 0 -0.03815
0 0 -0.03815
0 0 -0.03815
0 0 -0.03815
0 0 -0.03815
0 0 -0.03815
0 0 -0.03815
0 0 -0.03815
0 0 -0.03815
0 0 -0.03815
0 0 -0.03815
0 0 -0.03815
0 0 -0.03815
0 0 -0.03815
0 0 -0.03815
0 0 -0.03815
0 0 0
0 0 -0.03815
0 0 -0.03815
0 0 -0.03815
0 0 -0.03815
0 0 -0.03815
0 0 -0.03815
0 0 -0.03815
0 0 -0.03815
0 0 -0.03815
0 0 -0.03815
0 0 -0.03815
0 0 -0.03815
0 0 -0.03815
0 0 -0.03815
0 0 -0.03815
0 0 -0.03815
0 0 -0.03815
0 0 -0.03815
0 0 -0.03815
0 0 -0.03815
0 0 -0.03815
0 0 -0.03815
0 0 -0.03815
0 0 -0.03815
0 0 -0.03815
0 0 -0.03815
0 0 -0.03815
0 0 -0.03815
0 0 -0.03815
0 0 -0.03815
0 0 -0.03815
0 0 0
0 0 -0.03815
0 0 -0.03815
0 0 -0.03815
0 0 -0.03815
0 0 -0.03815
0 0 -0.03815
0 0 -0.03815
0 0 -0.03815
0 0 -0.03815
0 0 -0.03815
0 0 -0.03815
0 0 -0.03815
0 0 -0.03815
0 0 -0.03815
0 0 -0.03815
0 0 -0.03815
0 0 -0.03815
0 0 -0.03815
0 0 -0.03815
0 0 -0.03815
0 0 -0.03815
0 0 -0.03815
0 0 -0.03815
0 0 -0.03815
0 0 -0.03815
0 0 -0.03815
0 0 -0.03815
0 0 -0.03815
0 0 -0.03815
0 0 -0.03815
0 0 -0.03815
0 0 0
0 0 -0.03815
0 0 -0.03815
0 0 -0.03815
0 0 -0.03815
0 0 -0.03815
0 0 -0.03815
0 0 -0.03815
0 0 -0.03815
0 0 -0.03815
0 0 -0.03815
0 0 -0.03815
0 0 -0.03815
0 0 -0.03815
0 0 -0.03815
0 0 -0.03815
0 0 -0.03815
0 0 -0.03815
0 0 -0.03815
0 0 -0.03815
0 0 -0.03815
0 0 -0.03815
0 0 -0.03815
0 0 -0.03815
0 0 -0.03815
0 0 -0.03815
0 0 -0.03815
0 0 -0.03815
0 0 -0.03815
0 0 -0.03815
0 0 -0.03815
0 0 -0.03815
0 0 0
0 0 -0.03815
0 0 -0.03815
0 0 -0.03815
0 0 -0.03815
0 0 -0.03815
0 0 -0.03815
0 0 -0.03815
0 0 -0.03815
0 0 -0.03815
0 0 -0.03815
0 0 -0.03815
0 0 -0.03815
0 0 -0.03815
0 0 -0.03815
0 0 -0.03815
0 0 -0.03815
0 0 -0.03815
0 0 -0.03815
0 0 -0.03815
0 0 -0.03815
0 0 -0.03815
0 0 -0.03815
0 0 -0.03815
0 0 -0.03815
0 0 -0.03815
0 0 -0.03815
0 0 -0.03815
0 0 -0.03815
0 0 -0.03815
0 0 -0.03815
0 0 -0.03815
0 0 0
0 0 -0.03815
0 0 -0.03815
0 0 -0.03815
0 0 -0.03815
0 0 -0.03815
0 0 -0.03815
0 0 -0.03815
0 0 -0.03815
0 0 -0.03815
0 0 -0.03815
0 0 -0.03815
0 0 -0.03815
0 0 -0.03815
0 0 -0.03815
0 0 -0.03815
0 0 -0.03815
0 0 -0.03815
0 0 -0.03815
0 0 -0.03815
0 0 -0.03815
0 0 -0.03815
0 0 -0.03815
0 0 -0.03815
0 0 -0.03815
0 0 -0.03815
0 0 -0.03815
0 0 -0.03815
0 0 -0.03815
0 0 -0.03815
0 0 -0.03815
0 0 -0.03815
0 0 0
0 0 -0.03815
0 0 -0.03815
0 0 -0.03815
0 0 -0.03815
0 0 -0.03815
0 0 -0.03815
0 0 -0.03815
0 0 -0.03815
0 0 -0.03815
0 0 -0.03815
0 0 -0.03815
0 0 -0.03815
0 0 -0.03815
0 0 -0.03815
0 0 -0.03815
0 0 -0.03815
0 0 -0.03815
0 0 -0.03815
0 0 -0.03815
0 0 -0.03815
0 0 -0.03815
0 0 -0.03815
0 0 -0.03815
0 0 -0.03815
0 0 -0.03815
0 0 -0.03815
0 0 -0.03815
0 0 -0.03815
0 0 -0.03815
0 0 -0.03815
0 0 -0.03815
0 0 0
0 0 -0.03815
0 0 -0.03815
0 0 -0.03815
0 0 -0.03815
0 0 -0.03815
0 0 -0.03815
0 0 -0.03815
0 0 -0.03815
0 0 -0.03815
0 0 -0.03815
0 0 -0.03815
0 0 -0.03815
0 0 -0.03815
0 0 -0.03815
0 0 -0.03815
0 0 -0.03815
0 0 -0.03815
0 0 -0.03815
0 0 -0.03815
0 0 -0.03815
0 0 -0.03815
0 0 -0.03815
0 0 -0.03815
0 0 -0.03815
0 0 -0.03815
0 0 -0.03815
0 0 -0.03815
0 0 -0.03815
0 0 -0.03815
0 0 -0.03815
0 0 -0.03815
0 0 0
0 0 -0.03815
0 0 -0.03815
0 0 -0.03815
0 0 -0.03815
0 0 -0.03815
0 0 -0.03815
0 0 -0.03815
0 0 -0.03815
0 0 -0.03815
0 0 -0.03815
0 0 -0.03815
0 0 -0.03815
0 0 -0.03815
0 0 -0.03815
0 0 -0.03815