# vtk DataFile Version 3.0
vtk output
ASCII
DATASET UNSTRUCTURED_GRID
FIELD FieldData 2
TIME 1 1 double
25.002
CYCLE 1 1 int
0
POINTS 8428 float
564.523 303.31 920.179
573.948 298.634 917.254
583.573 294.121 914.305
593.477 289.713 911.357
603.687 285.399 908.417
614.22 281.184 905.491
625.083 277.075 902.586
636.283 273.086 899.707
647.823 269.229 896.862
659.707 265.516 894.056
671.934 261.962 891.297
684.506 258.582 888.593
697.425 255.391 885.948
710.685 252.4 883.375
724.291 249.622 880.884
738.239 247.079 878.475
752.532 244.782 876.16
767.177 242.746 873.944
782.172 240.983 871.839
797.537 239.514 869.847
813.285 238.349 867.982
829.448 237.517 866.241
846.075 237.036 864.633
863.244 236.946 863.155
881.071 237.297 861.802
900 238.28 860.448
900 243.696 855.097
900 249.509 849.613
900 255.749 844
900 262.448 838.267
900 269.636 832.425
900 277.343 826.49
900 285.595 820.479
900 294.416 814.414
900 303.825 808.32
900 313.835 802.224
900 324.452 796.155
900 335.673 790.146
900 347.492 784.225
900 359.889 778.424
900 372.84 772.77
900 386.316 767.289
900 400.282 762
900 414.7 756.921
900 429.532 752.066
900 444.739 747.442
900 460.28 743.054
900 476.12 738.904
900 492.223 734.992
900 508.559 731.312
900 525.1 727.859
900 541.816 724.627
900 558.685 721.608
900 575.687 718.794
900 592.806 716.176
900 610.025 713.744
900 627.328 711.491
900 644.705 709.406
900 662.143 707.483
900 679.636 705.711
900 697.175 704.085
900 714.752 702.596
900 732.365 701.236
900 751 700
879.144 751 701.475
858.328 750 703.124
837.562 750 704.958
816.856 751 706.99
796.223 750 709.232
775.676 750 711.698
755.234 751 714.401
734.917 751 717.357
714.749 750 720.579
694.759 750 724.083
674.979 751 727.883
655.447 750 731.991
636.207 751 736.419
617.308 750 741.174
598.806 750 746.262
580.758 750 751.68
563.229 750 757.423
546.283 750 763.475
529.985 750 769.815
514.395 750 776.411
499.567 751 783.226
485.541 750 790.214
472.349 750 797.326
460.003 750 804.512
448.503 751 811.721
447.288 732.678 812.732
447.146 716.102 813.442
447.175 699.702 814.431
447.388 683.518 815.68
447.814 667.597 817.154
448.463 651.989 818.826
449.334 636.712 820.679
450.425 621.765 822.698
451.975 606.644 824.813
453.734 591.774 827.113
455.705 577.19 829.578
457.881 562.906 832.198
460.26 548.944 834.955
462.833 535.33 837.832
465.594 522.054 840.821
468.53 509.138 843.908
471.837 496.196 847.099
475.31 483.607 850.384
478.938 471.379 853.748
482.71 459.52 857.177
486.614 448.036 860.659
490.636 436.929 864.181
494.763 426.2 867.731
498.98 415.848 871.302
503.5 405.57 874.911
508.092 395.665 878.53
512.738 386.137 882.147
517.433 376.965 885.758
522.16 368.151 889.354
526.908 359.686 892.929
531.667 351.56 896.475
536.426 343.763 899.988
541.176 336.286 903.465
545.909 329.118 906.9
550.617 322.247 910.292
555.292 315.663 913.637
559.93 309.355 916.933
880.008 430.543 751.944
860.063 431.555 752.215
840.347 432.641 752.843
820.53 433.488 753.945
800.76 434.219 755.48
781.095 434.898 757.429
761.571 435.555 759.788
742.215 436.214 762.552
723.064 436.895 765.718
704.156 437.637 769.276
685.539 438.49 773.208
667.245 439.453 777.515
649.332 440.573 782.173
631.842 441.876 787.162
614.824 443.381 792.461
598.333 445.115 798.031
582.412 447.104 803.835
567.103 449.332 809.841
552.442 451.815 816.001
538.451 454.546 822.273
525.155 457.518 828.605
512.559 460.713 834.957
500.664 464.109 841.287
489.461 467.676 847.561
668.256 425.297 782.504
669.398 411.542 787.705
670.678 398.214 793.097
672.102 385.339 798.662
673.68 372.948 804.369
675.414 361.067 810.187
677.305 349.693 816.096
679.353 338.844 822.059
681.556 328.527 828.046
683.91 318.74 834.024
686.405 309.476 839.968
689.044 300.728 845.843
691.815 292.481 851.627
694.709 284.715 857.297
697.719 277.413 862.835
700.833 270.552 868.223
704.041 264.111 873.448
707.33 258.067 878.503
697.717 326.318 824.146
714.327 324.37 820.451
731.37 322.669 816.994
748.812 321.209 813.802
766.645 319.965 810.906
784.832 318.902 808.346
803.356 317.994 806.151
822.19 317.188 804.364
841.303 316.432 803.029
860.655 315.666 802.192
879.989 314.656 802.01
784.159 329.813 802.046
783.565 341.268 795.848
783.048 353.256 789.782
782.593 365.748 783.877
782.198 378.716 778.159
781.859 392.156 772.636
781.566 406.018 767.334
781.316 420.282 762.26
763.641 366.609 786.388
744.962 367.565 789.289
726.591 368.643 792.564
708.559 369.878 796.188
690.914 371.306 800.131
727.598 356.357 798.505
728.728 344.59 804.577
729.984 333.357 810.751
746.672 343.327 801.315
764.959 342.222 798.401
745.765 355.189 795.23
764.26 354.163 792.315
747.683 331.993 807.518
765.754 330.825 804.603
694.016 347.755 811.996
711.17 346.057 808.147
692.389 359.266 806.016
709.797 357.709 802.108
695.792 336.767 818.052
712.676 334.936 814.276
723.595 422.428 770.646
724.199 408.334 775.812
724.897 394.663 781.194
725.691 381.419 786.786
743.091 407.513 772.585
762.226 406.756 769.753
742.62 421.676 767.45
761.871 420.964 764.654
744.251 380.42 783.525
743.633 393.753 777.947
763.1 379.541 780.638
762.634 392.936 775.086
687.311 410.322 783.388
705.596 409.269 779.414
686.371 424.212 778.185
704.829 423.267 774.228
689.576 383.844 794.382
688.378 396.858 788.793
707.45 382.544 790.416
706.468 395.686 784.816
879.978 361.004 778.153
860.365 362.255 778.268
840.715 363.232 778.956
821.169 364.111 780.135
801.778 364.925 781.788
840.831 350.74 784.765
840.964 338.755 790.735
841.122 327.319 796.829
860.484 337.856 789.994
879.975 336.689 789.871
860.419 349.784 784.061
879.979 348.569 783.945
860.564 326.48 796.047
879.98 325.382 795.901
802.459 340.402 793.7
821.603 339.583 791.983
802.094 352.409 787.663
821.368 351.589 785.981
802.877 328.927 799.87
821.875 328.114 798.119
840.401 417.945 757.625
840.467 403.624 762.637
840.536 389.705 767.874
840.619 376.237 773.316
860.208 402.58 761.99
879.992 401.383 761.807
860.152 416.891 756.984
880.004 415.762 756.764
860.316 375.229 772.646
860.252 388.67 767.22
879.987 373.97 772.518
879.989 387.441 767.064
801.079 405.278 765.332
820.724 404.485 763.766
800.908 419.568 760.287
820.618 418.801 758.738
801.512 377.931 776.094
801.276 391.384 770.607
820.993 377.112 774.477
820.852 390.589 769.011
795.658 245.192 864.308
793.926 251.325 858.554
792.344 257.94 852.607
790.909 265.049 846.501
789.614 272.673 840.264
788.442 280.821 833.936
787.386 289.51 827.547
786.437 298.75 821.129
785.592 308.551 814.715
772.764 273.985 842.669
756.327 275.584 845.274
740.305 277.46 848.059
724.693 279.614 851.004
709.49 282.034 854.091
742.501 269.997 854.018
744.829 263.02 859.827
747.284 256.508 865.464
749.853 250.435 870.915
760.269 261.04 857.271
776.107 259.346 854.856
758.229 268.063 851.345
774.366 266.414 848.829
764.751 248.404 868.59
762.445 254.494 863.026
780.013 246.65 866.386
777.987 252.763 860.719
715.109 267.789 865.317
729.772 265.273 862.515
712.242 274.683 859.78
727.172 272.208 856.834
721.146 255.282 875.879
718.081 261.329 870.688
735.32 252.734 873.347
732.493 258.79 868.024
732.887 312.534 823.273
734.533 302.957 829.55
736.32 293.924 835.796
738.244 285.43 841.976
751.433 301.308 826.484
768.738 299.911 823.666
750.061 310.98 820.135
767.639 309.66 817.27
754.566 283.624 839.082
752.935 292.19 832.812
771.295 282.085 836.398
769.955 290.723 830.053
702.009 307.038 836.318
718.055 304.864 832.838
699.79 316.41 830.245
716.12 314.344 826.651
706.863 289.864 848.269
704.37 298.195 842.335
722.344 287.513 845.044
720.131 295.925 838.979
880.283 269.722 832.678
861.345 269.992 833.377
842.737 270.327 834.595
824.584 270.859 836.19
806.884 271.636 838.092
843.177 262.702 840.839
843.702 255.575 846.995
844.338 248.927 853.039
845.116 242.747 858.935
861.836 255.396 845.611
880.494 255.449 844.602
861.57 262.454 839.53
880.397 262.357 838.672
862.63 242.652 857.457
862.177 248.802 851.594
880.797 242.951 856.173
880.626 248.992 850.437
809.004 256.844 850.528
826.112 256.055 848.648
807.878 263.983 844.369
825.293 263.204 842.469
811.698 244.041 862.37
810.272 250.201 856.541
828.168 243.22 860.575
827.061 249.398 854.696
841.512 306.1 809.306
841.757 296.34 815.623
842.032 287.125 821.967
842.357 278.458 828.3
860.873 295.737 814.656
880.012 294.957 814.346
860.754 305.414 808.408
879.995 304.517 808.168
861.162 278.04 827.165
861.002 286.613 820.919
880.155 277.584 826.621
880.034 285.968 820.519
804.515 297.789 818.917
822.96 297.001 817.065
803.901 307.614 812.509
822.547 306.814 810.691
805.998 279.807 831.742
805.212 288.523 825.338
823.969 279.034 829.844
823.434 287.748 823.456
527.001 372.412 881.392
537.056 367.912 876.957
547.611 363.485 872.468
558.668 359.169 867.931
570.243 354.981 863.361
582.335 350.943 858.779
594.952 347.077 854.2
608.096 343.405 849.645
621.765 339.945 845.136
635.955 336.715 840.696
650.658 333.728 836.351
665.862 330.996 832.125
578.426 360.431 853.985
574.635 370.346 849.16
570.974 380.693 844.321
567.459 391.474 839.485
564.101 402.689 834.669
560.911 414.337 829.893
557.899 426.413 825.177
555.073 438.909 820.541
554.598 395.085 844.875
542.337 398.897 850.263
530.667 402.888 855.622
519.574 407.043 860.929
509.027 411.353 866.164
534.739 392.467 859.844
538.931 382.424 864.069
543.229 372.764 868.28
550.279 378.239 859.124
562.177 374.205 854.148
546.244 388.369 854.694
558.319 384.437 849.512
554.425 368.506 863.542
566.157 364.388 858.769
517.85 391.164 873.786
528.127 386.741 868.961
513.384 401.087 869.971
523.79 396.712 864.944
522.394 381.609 877.594
532.556 377.138 872.97
515.853 448.38 838.984
519.32 436.428 843.079
522.95 424.863 847.227
526.734 413.685 851.412
531.518 432.877 837.106
544.378 429.532 831.127
528.246 445.002 832.818
541.32 441.839 826.656
538.573 409.823 845.845
534.964 421.15 841.454
551.026 406.151 840.254
547.617 417.634 835.665
496.88 444.04 854.881
507.777 440.159 849.014
493.097 455.672 851.193
504.14 451.946 845.12
504.847 421.895 862.376
500.799 432.783 858.613
515.498 417.716 856.93
511.566 428.75 852.955
656.905 374.84 808.862
[...]
POINT_DATA 8428
SCALARS NODE_ID int 1
LOOKUP_TABLE default
1
2
3
4
5
6
7
8
9
10
11
12
13
14
15
16
17
18
19
20
21
22
23
24
25
26
27
28
29
30
31
32
33
34
35
36
37
38
39
40
41
42
43
44
45
46
47
48
49
50
51
52
53
54
55
56
57
58
59
60
61
62
63
64
65
66
67
68
69
70
71
72
73
74
75
76
77
78
79
80
81
82
83
84
85
86
87
88
89
90
91
92
93
94
95
96
97
98
99
100
101
102
103
104
105
106
107
108
109
110
111
112
113
114
115
116
117
118
119
120
121
122
123
124
125
126
127
128
129
130
131
132
133
134
135
136
137
138
139
140
141
142
143
144
145
146
147
148
149
150
151
152
153
154
155
156
157
158
159
160
161
162
163
164
165
166
167
168
169
170
171
172
173
174
175
176
177
178
179
180
181
182
183
184
185
186
187
188
189
190
191
192
193
194
195
196
197
198
199
200
201
202
203
204
205
206
207
208
209
210
211
212
213
214
215
216
217
218
219
220
221
222
223
224
225
226
227
228
229
230
231
232
233
234
235
236
237
238
239
240
241
242
243
244
245
246
247
248
249
250
251
252
253
254
255
256
257
258
259
260
261
262
263
264
265
266
267
268
269
270
271
272
273
274
275
276
277
278
279
280
281
282
283
284
285
286
287
288
289
290
291
292
293
294
295
296
297
298
299
300
301
302
303
304
305
306
307
308
309
310
311
312
313
314
315
316
317
318
319
320
321
322
323
324
325
326
327
328
329
330
331
332
333
334
335
336
337
338
339
340
341
342
343
344
345
346
347
348
349
350
351
352
353
354
355
356
357
358
359
360
361
362
363
364
365
366
367
368
369
370
371
372
373
374
375
376
377
378
379
380
381
382
383
384
385
386
387
388
389
390
391
392
393
394
395
396
397
398
399
400
401
402
403
404
405
406
407
408
409
410
411
412
413
414
415
416
417
418
419
420
421
422
423
424
425
426
427
428
429
430
431
432
433
434
435
436
437
438
439
440
441
442
443
444
445
446
447
448
449
450
451
452
453
454
455
456
457
458
459
460
461
462
463
464
465
466
467
468
469
470
471
472
473
474
475
476
477
478
479
480
481
482
483
484
485
486
487
488
489
490
491
492
493
494
495
496
497
498
499
500
501
502
503
504
505
506
507
508
509
510
511
512
513
514
515
516
517
518
519
520
521
522
523
524
525
526
527
528
529
530
531
532
533
534
535
536
537
538
539
540
541
542
543
544
545
546
547
548
549
550
551
552
553
554
555
556
557
558
559
560
561
562
563
564
565
566
567
568
569
570
571
572
573
574
575
576
577
578
579
580
581
582
583
584
585
586
587
588
589
590
591
592
593
594
595
596
597
598
599
600
601
602
603
604
605
606
607
608
609
610
611
612
613
614
615
616
617
618
619
620
621
622
623
624
625
626
627
628
629
630
631
632
633
634
635
636
637
638
639
640
641
642
643
644
645
646
647
648
649
650
651
652
653
654
655
656
657
658
659
660
661
662
663
664
665
666
667
668
669
670
671
672
673
674
675
676
677
678
679
680
681
682
683
684
685
686
687
688
689
690
691
692
693
694
695
696
697
698
699
700
701
702
703
704
705
706
707
708
709
710
711
712
713
714
715
716
717
718
719
720
721
722
723
724
725
726
727
728
729
730
731
732
733
734
735
736
737
738
739
740
741
742
743
744
745
746
747
748
749
750
751
752
753
754
755
756
757
758
759
760
761
762
763
764
765
766
767
768
769
770
771
772
773
774
775
776
777
778
779
780
781
782
783
784
785
786
787
788
789
790
791
792
793
794
795
796
797
798
799
800
801
802
803
804
805
806
807
808
809
810
811
812
813
814
815
816
817
818
819
820
821
822
823
824
825
826
827
828
829
830
831
832
833
834
835
836
837
838
839
840
841
842
843
844
845
846
847
848
849
850
851
852
853
854
855
856
857
858
859
860
861
862
863
864
865
866
867
868
869
870
871
872
873
874
875
876
877
878
879
880
881
882
883
884
885
886
887
888
889
890
891
892
893
894
895
896
897
898
899
900
901
902
903
904
905
906
907
908
909
910
911
912
913
914
915
916
917
918
919
920
921
922
923
924
925
926
927
928
929
930
931
932
933
934
935
936
937
938
939
940
941
942
943
944
945
946
947
948
949
950
951
952
953
954
955
956
957
958
959
960
961
962
963
964
965
966
967
968
969
970
971
972
973
974
975
976
977
978
979
980
981
982
983
984
985
986
987
988
989
990
991
992
993
994
995
996
997
998
999
1000
1001
1002
1003
1004
1005
1006
1007
1008
1009
1010
1011
1012
1013
1014
1054
1055
1056
1057
1058
1059
1060
1061
1062
1063
1064
1065
1066
1067
1068
1069
1070
1071
1072
1073
1074
1075
1076
1077
1078
1079
1080
1081
1082
1083
1084
1085
1086
1087
1088
1089
1090
1091
1092
1093
1094
1095
1096
1097
1098
1099
1100
1101
1102
1103
1104
1105
1106
1107
1108
1109
1110
1111
1112
1113
1114
1115
1116
1117
1118
1119
1120
1121
1122
1123
1124
1125
1126
1127
1128
1129
1130
1131
1132
1133
1134
1135
1136
1137
1138
1139
1140
1141
1142
1143
1144
1145
1146
1147
1148
1149
1150
1151
1152
1153
1154
1155
1156
1157
1158
1159
1160
1161
1162
1163
1164
1165
1166
1167
1168
1169
1170
1171
1172
1173
1174
1175
1176
1177
1178
1179
1180
1181
1182
1183
1184
1185
1186
1187
1188
1189
1190
1191
1192
1193
1194
1195
1196
1197
1198
1199
1200
1201
1202
1203
1204
1205
1206
1207
1208
1209
1210
1211
1212
1213
1214
1215
1216
1217
1218
1219
1220
1221
1222
1223
1224
1225
1226
1227
1228
1229
1230
1231
1232
1233
1234
1235
1236
1237
1238
1239
1240
1241
1242
1243
1244
1245
1246
1247
1248
1249
1250
1251
1252
1253
1254
1255
1256
1257
1258
1259
1260
1261
1262
1263
1264
1265
1266
1267
1268
1269
1270
1271
1272
1273
1274
1275
1276
1277
1278
1279
1280
1281
1282
1283
1284
1285
1286
1287
1288
1289
1290
1291
1292
1293
1294
1295
1296
1297
1298
1299
1300
1301
1302
1303
1304
1305
1306
1307
1308
1309
1310
1311
1312
1313
1314
1315
1316
1317
1318
1319
1320
1321
1322
1323
1324
1325
1326
1327
1328
1329
1330
1331
1332
1333
1334
1335
1336
1337
1338
1339
1340
1341
1342
1343
1344
1345
1346
1347
1348
1349
1350
1351
1352
1353
1354
1355
1356
1357
1358
1359
1360
1361
1362
1363
1364
1365
1366
1367
1368
1369
1370
1371
1372
1373
1374
1375
1376
1377
1378
1379
1380
1381
1382
1383
1384
1385
1386
1387
1388
1389
1390
1391
1392
1393
1394
1395
1396
1397
1398
1399
1400
1401
1402
1403
1404
1405
1406
1407
1408
1409
1410
1411
1412
1413
1414
1415
1416
1417
1418
1419
1420
1421
1422
1423
1424
1425
1426
1427
1428
1429
1430
1431
1432
1433
1434
1435
1436
1437
1438
1439
1440
1441
1442
1443
1444
1445
1446
1447
1448
1449
1450
1451
1452
1453
1454
1455
1456
1457
1458
1459
1460
1461
1462
1463
1464
1465
1466
1467
1468
1469
1470
1471
1472
1473
1474
1475
1476
1477
1478
1479
1480
1481
1482
1483
1484
1485
1486
1487
1488
1489
1490
1491
1492
1493
1494
1495
1496
1497
1498
1499
1500
1501
1502
1503
1504
1505
1506
1507
1508
1509
1510
1511
1512
1513
1514
1515
1516
1517
1518
1519
1520
1521
1522
1523
1524
1525
1526
1527
1528
1529
1530
1531
1532
1533
1534
1535
1536
1537
1538
1539
1540
1541
1542
1543
1544
1545
1546
1547
1548
1549
1550
1551
1552
1553
1554
1555
1556
1557
1558
1559
1560
1561
1562
1563
1564
1565
1566
1567
1568
1569
1570
1571
1572
1573
1574
1575
1576
1577
1578
1579
1580
1581
1582
1583
1584
1585
1586
1587
1588
1589
1590
1591
1592
1593
1594
1595
1596
1597
1598
1599
1600
1601
1602
1603
1604
1605
1606
1607
1608
1609
1610
1611
1612
1613
1614
1615
1616
1617
1618
1619
1620
1621
1622
1623
1624
1625
1626
1627
1628
1629
1630
1631
1632
1633
1634
1635
1636
1637
1638
1639
1640
1641
1642
1643
1644
1645
1646
1647
1648
1649
1650
1651
1652
1653
1654
1655
1656
1657
1658
1659
1660
1661
1662
1663
1664
1665
1666
1667
1668
1669
1670
1671
1672
1673
1674
1675
1676
1677
1678
1679
1680
1681
1682
1683
1684
1685
1686
1687
1688
1689
1690
1691
1692
1693
1694
1695
1696
1697
1698
1699
1700
1701
1702
1703
1704
1705
1706
1707
1708
1709
1710
1711
1712
1713
1714
1715
1716
1717
1718
1719
1720
1721
1722
1723
1724
1725
1726
1727
1728
1729
1730
1731
1732
1733
1734
1735
1736
1737
1738
1739
1740
1741
1742
1743
1744
1745
1746
1747
1748
1749
1750
1751
1752
1753
1754
1755
1756
1757
1758
1759
1760
1761
1762
1763
1764
1765
1766
1767
1768
1769
1770
1771
1772
1773
1774
1775
1776
1777
1778
1779
1780
1781
1782
1783
1784
1785
1786
1787
1788
1789
1790
1791
1792
1793
1794
1795
1796
1797
1798
1799
1800
1801
1802
1803
1804
1805
1806
1807
1808
1809
1810
1811
1812
1813
1814
1815
1816
1817
1818
1819
1820
1821
1822
1823
1824
1825
1826
1827
1828
1829
1830
1831
1832
1833
1834
1835
1836
1837
1838
1839
1840
1841
1842
1843
1844
1845
1846
1847
1848
1849
1850
1851
1852
1853
1854
1855
1856
1857
1858
1859
1860
1861
1862
1863
1864
1865
1866
1867
1868
1869
1870
1871
1872
1873
1874
1875
1876
1877
1878
1879
1880
1881
1882
1883
1884
1885
1886
1887
1888
1889
1890
1891
1892
1893
1894
1895
1896
1897
1898
1899
1900
1901
1902
1903
1904
1905
1906
1907
1908
1909
1910
1911
1912
1913
1914
1915
1916
1917
1918
1919
1920
1921
1922
1923
1924
1925
1926
1927
1928
1929
1930
1931
1932
1933
1934
1935
1936
1937
1938
1939
1940
1941
1942
1943
1944
1945
1946
1947
1948
1949
1950
1951
1952
1953
1954
1955
1956
1957
1958
1959
1960
1961
1962
1963
1964
1965
1966
1967
1968
1969
1970
1971
1972
1973
1974
1975
1976
1977
1978
1979
1980
1981
1982
1983
1984
1985
1986
1987
1988
1989
1990
1991
1992
1993
1994
1995
1996
1997
1998
1999
2000
2001
2002
2003
2004
2005
2006
2007
2008
2009
2010
2011
2012
2013
2014
2015
2016
2017
2018
2019
2020
2021
2022
2023
2024
2025
2026
2027
2028
2029
2030
2031
2032
2033
2034
2035
2036
2037
2038
2039
2040
2041
2042
2043
2044
2045
2046
2047
2048
2049
2050
2051
2052
2053
2054
2055
2056
2057
2058
2059
2060
2061
2062
2063
2064
2065
2066
2067
2068
2069
2070
2071
2072
2073
2074
2075
2076
2077
2078
2079
2080
2081
2082
2083
2084
2085
2086
2087
2088
2089
2090
2091
2092
2093
2094
2095
2096
2097
2098
2099
2100
2101
2102
2103
2104
2105
2106
2107
2108
2109
2110
2111
2112
2113
2114
2115
2116
2117
2118
2119
2120
2121
2122
2123
2124
2125
2126
2127
2128
2129
2130
2131
2132
2133
2134
2135
2136
2137
2138
2139
2140
2141
2142
2143
2144
2145
2146
2147
2148
2149
2150
2151
2152
2153
2154
2155
2156
2157
2158
2159
2160
2161
2162
2163
2164
2165
2166
2167
2168
2169
2170
2171
2172
2173
2174
2175
2176
2177
2178
2179
2180
2181
2182
2183
2184
2185
2186
2187
2188
2189
2190
2191
2192
2193
2194
2195
2196
2197
2198
2199
2200
2201
2202
2203
2204
2205
2206
2207
2208
2209
2210
2211
2212
2213
2214
2215
2216
2217
2218
2219
2220
2221
2222
2223
2224
2225
2226
2227
2228
2229
2230
2231
2232
2233
2234
2235
2236
2237
2238
2239
2240
2241
2242
2243
2244
2245
2246
2247
2248
2249
2250
2251
2252
2253
2254
2255
2256
2257
2258
2259
2260
2261
2262
2263
2264
2265
2266
2267
2268
2269
2270
2271
2272
2273
2274
2275
2276
2277
2278
2279
2280
2281
2282
2283
2284
2285
2286
2287
2288
2289
2290
2291
2292
2293
2294
2295
2296
2297
2298
2299
2300
2301
2302
2303
2304
2305
2306
2307
2308
2309
2310
2311
2312
2313
2314
2315
2316
2317
2318
2319
2320
2321
2322
2323
2324
2325
2326
2327
2328
2329
2330
2331
2332
2333
2334
2335
2336
2337
2338
2339
2340
2341
2342
2343
2344
2345
2346
2347
2348
2349
2350
2351
2352
2353
2354
2355
2356
2357
2358
2359
2360
2361
2362
2363
2364
2365
2366
2367
2368
2369
2370
2371
2372
2373
2374
2375
2376
2377
2378
2379
2380
2381
2382
2383
2384
2385
2386
2387
2388
2389
2390
2391
2392
2393
2394
2395
2396
2397
2398
2399
2400
2401
2402
2403
2404
2405
2406
2407
2408
2409
2410
2411
2412
2413
2414
2415
2416
2417
2418
2419
2420
2421
2422
2423
2424
2425
2426
2427
2428
2429
2430
2431
2432
2433
2434
2435
2436
2437
2438
2439
2440
2441
2442
2443
2444
2445
2446
2447
2448
2449
2450
2451
2452
2453
2454
2455
2456
2457
2458
2459
2460
2461
2462
2463
2464
2465
2466
2467
2468
2469
2470
2471
2472
2473
2474
2475
2476
2477
2478
2479
2480
2481
2482
2483
2484
2485
2486
2487
2488
2489
2490
2491
2492
2493
2494
2495
2496
2497
2498
2499
2500
2501
2502
2503
2504
2505
2506
2507
2508
2509
2510
2511
2512
2513
2514
2515
2516
2517
2518
2519
2520
2521
2522
2523
2524
2525
2526
2527
2528
2529
2530
2531
2532
2533
2534
2535
2536
2537
2538
2539
2540
2541
2542
2543
2544
2545
2546
2547
2548
2549
2550
2551
2552
2553
2554
2555
2556
2557
2558
2559
2560
2561
2562
2563
2564
2565
2566
2567
2568
2569
2570
2571
2572
2573
2574
2575
2576
2577
2578
2579
2580
2581
2582
2583
2584
2585
2586
2587
2588
2589
2590
2591
2592
2593
2594
2595
2596
2597
2598
2599
2600
2601
2602
2603
2604
2605
2606
2607
2608
2609
2610
2611
2612
2613
2614
2615
2616
2617
2618
2619
2620
2621
2622
2623
2624
2625
2626
2627
2628
2629
2630
2631
2632
2633
2634
2635
2636
2637
2638
2639
2640
2641
2642
2643
2644
2645
2646
2647
2648
2649
2650
2651
2652
2653
2654
2655
2656
2657
2658
2659
2660
2661
2662
2663
2664
2665
2666
2667
2668
2669
2670
2671
2672
2673
2674
2675
2676
2677
2678
2679
2680
2681
2682
2683
2684
2685
2686
2687
2688
2689
2690
2691
2692
2693
2694
2695
2696
2697
2698
2699
2700
2701
2702
2703
2704
2705
2706
2707
2708
2709
2710
2711
2712
2713
2714
2715
2716
2717
2718
2719
2720
2721
2722
2723
2724
2725
2726
2727
2728
2729
2730
2731
2732
2733
2734
2735
2736
2737
2738
2739
2740
2741
2742
2743
2744
2745
2746
2747
2748
2749
2750
2751
2752
2753
2754
2755
2756
2757
2758
2759
2760
2761
2762
2763
2764
2765
2766
2767
2768
2769
2770
2771
2772
2773
2774
2775
2776
2777
2778
2779
2780
2781
2782
2783
2784
2785
2786
2787
2788
2789
2790
2791
2792
2793
2794
2795
2796
2797
2798
2799
2800
2801
2802
2803
2804
2805
2806
2807
2808
2809
2810
2811
2812
2813
2814
2815
2816
2817
2818
2819
2820
2821
2822
2823
2824
2825
2826
2827
2828
2829
2830
2831
2832
2833
2834
2835
2836
2837
2838
2839
2840
2841
2842
2843
2844
2845
2846
2847
2848
2849
2850
2851
2852
2853
2854
2855
2856
2857
2858
2859
2860
2861
2862
2863
2864
2865
2866
2867
2868
2869
2870
2871
2872
2873
2874
2875
2876
2877
2878
2879
2880
2881
2882
2883
2884
2885
2886
2887
2888
2889
2890
2891
2892
2893
2894
2895
2896
2897
2898
2899
2900
2901
2902
2903
2904
2905
2906
2907
2908
2909
2910
2911
2912
2913
2914
2915
2916
2917
2918
2919
2920
2921
2922
2923
2924
2925
2926
2927
2928
2929
2930
2931
2932
2933
2934
2935
2936
2937
2938
2939
2940
2941
2942
2943
2944
2945
2946
2947
2948
2949
2950
2951
2952
2953
2954
2955
2956
2957
2958
2959
2960
2961
2962
2963
2964
2965
2966
2967
2968
2969
2970
2971
2972
2973
2974
2975
2976
2977
2978
2979
2980
2981
2982
2983
2984
2985
2986
2987
2988
2989
2990
2991
2992
2993
2994
2995
2996
2997
2998
2999
3000
3001
3002
3003
3030
3031
3032
3033
3034
3035
3036
3037
3038
3039
3040
3041
3042
3043
3044
3045
3046
3047
3048
3049
3050
3051
3052
3053
3054
3055
3056
3057
3058
3059
3060
3061
3062
3063
3064
3065
3066
3067
3068
3069
3070
3071
3072
3073
3074
3075
3076
3077
3078
3079
3080
3081
3082
3083
3084
3085
3086
3087
3088
3089
3090
3091
3092
3093
3094
3095
3096
3097
3098
3099
3100
3101
3102
3103
3154
3155
3156
3157
3158
3159
3160
3161
3162
3163
3164
3165
3166
3167
3168
3169
3170
3171
3172
3173
3174
3175
3176
3177
3178
3179
3180
3181
3182
3183
3184
3185
3186
3187
3188
3189
3190
3191
3192
3193
3194
3195
3196
3197
3198
3199
3200
3201
3202
3203
3204
3205
3206
3207
3208
3209
3210
3211
3212
3213
3214
3215
3216
3217
3218
3219
3220
3221
3222
3223
3224
3225
3226
3227
3228
3229
3230
3231
3232
3233
3234
3235
3236
3237
3238
3239
3240
3241
3242
3243
3244
3245
3246
3247
3248
3249
3250
3251
3252
3253
3254
3255
3256
3257
3258
3259
3260
3261
3262
3263
3264
3265
3266
3267
3268
3269
3270
3271
3272
3273
3274
3275
3276
3277
3278
3279
3280
3281
3282
3283
3284
3285
3286
3287
3288
3289
3290
3291
3292
3293
3294
3295
3296
3297
3298
3299
3300
3301
3302
3303
3304
3305
3306
3307
3308
3309
3310
3311
3312
3313
3314
3315
3316
3317
3318
3319
3320
3321
3322
3323
3324
3325
3326
3327
3328
3329
3330
3331
3332
3333
3334
3335
3336
3337
3338
3339
3340
3341
3342
3343
3344
3345
3346
3347
3348
3349
3350
3351
3352
3353
3354
3355
3356
3357
3358
3359
3360
3361
3362
3363
3364
3365
3366
3367
3368
3369
3370
3371
3372
3373
3374
3375
3376
3377
3378
3379
3380
3381
3382
3383
3384
3385
3386
3387
3388
3389
3390
3391
3392
3393
3394
3395
3396
3397
3398
3399
3400
3401
3402
3403
3404
3405
3406
3407
3408
3409
3410
3411
3412
3413
3414
3415
3416
3417
3418
3419
3420
3421
3422
3423
3424
3425
3426
3427
3428
3429
3430
3431
3432
3433
3434
3435
3436
3437
3438
3439
3440
3441
3442
3443
3444
3445
3446
3447
3448
3449
3450
3451
3452
3453
3454
3455
3456
3457
3458
3459
3460
3461
3462
3463
3464
3465
3466
3467
3468
3469
3470
3471
3472
3473
3474
3475
3476
3477
3478
3479
3480
3481
3482
3483
3484
3485
3486
3487
3488
3489
3490
3491
3492
3493
3494
3495
3496
3497
3498
3499
3500
3501
3502
3503
3504
3505
3506
3507
3508
3509
3510
3511
3512
3513
3514
3515
3516
3517
3518
3519
3520
3521
3522
3523
3524
3525
3526
3527
3528
3529
3530
3531
3532
3533
3534
3535
3536
3537
3538
3539
3540
3541
3542
3543
3544
3545
3546
3547
3548
3549
3550
3551
3552
3553
3554
3555
3556
3557
3558
3559
3560
3561
3562
3563
3564
3565
3566
3567
3568
3569
3570
3571
3572
3573
3574
3575
3576
3577
3578
3579
3580
3581
3582
3583
3584
3585
3586
3587
3588
3589
3590
3591
3592
3593
3594
3595
3596
3597
3598
3599
3600
3601
3602
3603
3604
3605
3606
3607
3608
3609
3610
3611
3612
3613
3614
3615
3616
3617
3618
3619
3620
3621
3622
3623
3624
3625
3626
3627
3628
3629
3630
3631
3632
3633
3634
3635
3636
3637
3638
3639
3640
3641
3642
3643
3644
3645
3646
3647
3648
3649
3650
3651
3652
3653
3654
3655
3656
3657
3658
3659
3660
3661
3662
3663
3664
3665
3666
3667
3668
3669
3670
3671
3672
3673
3674
3675
3676
3677
3678
3679
3680
3681
3682
3683
3684
3685
3686
3687
3688
3689
3690
3691
3692
3693
3694
3695
3696
3697
3698
3699
3700
3701
3702
3703
3704
3705
3706
3707
3708
3709
3710
3711
3712
3713
3714
3715
3716
3717
3718
3719
3720
3721
3722
3723
3724
3725
3726
3727
3728
3729
3730
3731
3732
3733
3734
3735
3736
3737
3738
3739
3740
3741
3742
3743
3744
3745
3746
3747
3748
3749
3750
3751
3752
3753
3754
3755
3756
3757
3758
3759
3760
3761
3762
3763
3764
3765
3766
3767
3768
3769
3770
3771
3772
3773
3774
3775
3776
3777
3778
3779
3780
3781
3782
3783
3784
3785
3786
3787
3788
3789
3790
3791
3792
3793
3794
3795
3796
3797
3798
3799
3800
3801
3802
3803
3804
3805
3806
3807
3808
3809
3810
3811
3812
3813
3814
3815
3816
3817
3818
3819
3820
3821
3822
3823
3824
3825
3826
3827
3828
3829
3830
3831
3832
3833
3834
3835
3836
3837
3838
3839
3840
3841
3842
3843
3844
3845
3846
3847
3848
3849
3850
3851
3852
3853
3854
3855
3856
3857
3858
3859
3860
3861
3862
3863
3864
3865
3866
3867
3868
3869
3870
3871
3872
3873
3874
3875
3876
3877
3878
3879
3880
3881
3882
3883
3884
3885
3886
3887
3888
3889
3890
3891
3892
3893
3894
3895
3896
3897
3898
3899
3900
3901
3902
3903
3904
3905
3906
3907
3908
3909
3910
3911
3912
3913
3914
3915
3916
3917
3918
3919
3920
3921
3922
3923
3924
3925
3926
3927
3928
3929
3930
3931
3932
3933
3934
3935
3936
3937
3938
3939
3940
3941
3942
3943
3944
3945
3946
3947
3948
3949
3950
3951
3952
3953
3954
3955
3956
3957
3958
3959
3960
3961
3962
3963
3964
3965
3966
3967
3968
3969
3970
3971
3972
3973
3974
3975
3976
3977
3978
3979
3980
3981
3982
3983
3984
3985
3986
3987
3988
3989
3990
3991
3992
3993
3994
3995
3996
3997
3998
3999
4000
4001
4002
4003
4004
4005
4006
4007
4008
4009
4010
4011
4012
4013
4014
4015
4016
4017
4018
4019
4020
4021
4022
4023
4024
4025
4026
4027
4028
4029
4030
4031
4032
4033
4034
4035
4036
4037
4038
4039
4040
4041
4042
4043
4044
4045
4046
4047
4048
4049
4050
4051
4052
4053
4054
4055
4056
4057
4058
4059
4060
4061
4062
4063
4064
4065
4066
4067
4068
4069
4070
4071
4072
4073
4074
4075
4076
4077
4078
4079
4080
4081
4082
4083
4084
4085
4086
4087
4088
4089
4090
4091
4092
4093
4094
4095
4096
4097
4098
4099
4100
4101
4102
4103
4104
4105
4106
4107
4108
4109
4110
4111
4112
4113
4114
4115
4116
4117
4118
4119
4120
4121
4122
4123
4124
4125
4126
4127
4128
4129
4130
4131
4132
4133
4134
4135
4136
4137
4138
4139
4140
4141
4142
4143
4144
4145
4146
4147
4148
4149
4150
4151
4152
4153
4154
4155
4156
4157
4158
4159
4160
4161
4162
4163
4164
4165
4166
4167
4168
4169
4170
4171
4172
4173
4174
4175
4176
4177
4178
4179
4180
4181
4182
4183
4184
4185
4186
4187
4188
4189
4190
4191
4192
4193
4194
4195
4196
4197
4198
4199
4200
4201
4202
4203
4204
4205
4206
4207
4208
4209
4210
4211
4212
4213
4214
4215
4216
4217
4218
4219
4220
4221
4222
4223
4224
4225
4226
4227
4228
4229
4230
4231
4232
4233
4234
4235
4236
4237
4238
4239
4240
4241
4242
4243
4244
4245
4246
4247
4248
4249
4250
4251
4252
4253
4254
4255
4256
4257
4258
4259
4260
4261
4262
4263
4264
4265
4266
4267
4268
4269
4270
4271
4272
4273
4274
4275
4276
4277
4278
4279
4280
4281
4282
4283
4284
4285
4286
4287
4288
4289
4290
4291
4292
4293
4294
4295
4296
4297
4298
4299
4300
4301
4302
4303
4304
4305
4306
4307
4308
4309
4310
4311
4312
4313
4314
4315
4316
4317
4318
4319
4320
4321
4322
4323
4324