# vtk DataFile Version 3.0
vtk output
ASCII
DATASET UNSTRUCTURED_GRID
FIELD FieldData 2
TIME 1 1 double
1.02458
CYCLE 1 1 int
0
POINTS 2 float
0 0 0
1.02458 2.02458 1.02458

CELLS 1 3
2 0 1

CELL_TYPES 1
3

POINT_DATA 2
SCALARS NODE_ID int 1
LOOKUP_TABLE default
1
2

CELL_DATA 1
SCALARS ELEMENT_ID int 1
LOOKUP_TABLE default
1

SCALARS PART_ID int 1
LOOKUP_TABLE default
1

SCALARS EROSION_STATUS int 1
LOOKUP_TABLE default
0

