# vtk DataFile Version 3.0
vtk output
ASCII
DATASET UNSTRUCTURED_GRID
FIELD FieldData 2
TIME 1 1 double
0
CYCLE 1 1 int
0
POINTS 17 float
0 0 0.005
0.05 0 0.005
0.05 0.05 0.005
0 0.05 0.005
-10 10 0
10 10 0
10 -10 0
-10 -10 0
0 0 0.3
0.05 0 0.3
0.05 0.05 0.3
0 0.05 0.3
0 0 0.2995
-9.99849 -9.99849 0.2995
9.99849 -9.99849 0.2995
9.99849 9.99849 0.2995
-9.99849 9.99849 0.2995

CELLS 5 25
4 0 1 2 3
4 4 5 6 7
4 8 9 10 11
4 12 12 12 12
4 13 16 15 14

CELL_TYPES 5
9
9
9
9
9

POINT_DATA 17
SCALARS NODE_ID int 1
LOOKUP_TABLE default
31
32
33
34
51
52
53
54
71
72
73
74
0
0
0
0
0

CELL_DATA 5
SCALARS ELEMENT_ID int 1
LOOKUP_TABLE default
31
51
71
0
0

SCALARS PART_ID int 1
LOOKUP_TABLE default
1
2
3
1
1

SCALARS EROSION_STATUS int 1
LOOKUP_TABLE default
1
1
1
1
1

