# vtk DataFile Version 3.0
vtk output
ASCII
DATASET UNSTRUCTURED_GRID
FIELD FieldData 2
TIME 1 1 double
0
CYCLE 1 1 int
0
POINTS 14 float
-0.000577362 0.000487488 -4.71497e-05
99.9995 -0.000575043 0.000872131
100.001 99.9999 -3.95203e-05
-0.000420959 99.9996 0.000742798
0.000872955 -0.000673035 100
100.001 0.000506134 99.9993
99.9997 99.9998 99.9997
-0.000679138 100 99.9995
-0.000190399 -0.000495667 100.009
-0.000190399 -0.000495667 100.009
-0.00032501 -70.7069 100.009
-70.7066 -0.000361055 100.009
-5.57882e-05 70.7059 100.009
70.7062 -0.000630278 100.009

CELLS 3 19
4 9 9 9 9
4 10 13 12 11
8 0  1  2  3  4  5  6  7

CELL_TYPES 3
9
9
12

POINT_DATA 14
SCALARS NODE_ID int 1
LOOKUP_TABLE default
1
2
3
4
5
6
7
8
9
0
0
0
0
0

VECTORS Velocity float
0 0 0
0 0 0
0 0 0
0 0 0
9.5191e-06 2.47811e-05 -5
9.5191e-06 2.47811e-05 -5
9.5191e-06 2.47811e-05 -5
9.5191e-06 2.47811e-05 -5
0 0 -5
0 0 0
0 0 0
0 0 0
0 0 0
0 0 0

VECTORS Acceleration float
0 0 0
0 0 0
0 0 0
0 0 0
0 0 0
0 0 0
0 0 0
0 0 0
0 0 0
0 0 0
0 0 0
0 0 0
0 0 0
0 0 0

VECTORS Internal_Forces float
0 0 0
0 0 0
0 0 0
0 0 0
0 0 0
0 0 0
0 0 0
0 0 0
0 0 0
0 0 0
0 0 0
0 0 0
0 0 0
0 0 0

CELL_DATA 3
SCALARS ELEMENT_ID int 1
LOOKUP_TABLE default
0
0
1

SCALARS PART_ID int 1
LOOKUP_TABLE default
9
9
1

SCALARS EROSION_STATUS int 1
LOOKUP_TABLE default
1
1
1

SCALARS 2DELEM_Pressure float 1
LOOKUP_TABLE default
0
0
0

SCALARS 2DELEM_Stress_X_ float 1
LOOKUP_TABLE default
0
0
0

SCALARS 2DELEM_Stress_Y_ float 1
LOOKUP_TABLE default
0
0
0

SCALARS 2DELEM_Stress_Z_ float 1
LOOKUP_TABLE default
0
0
0

SCALARS 3DELEM_Pressure float 1
LOOKUP_TABLE default
0
0
0

SCALARS 3DELEM_Stress_X_ float 1
LOOKUP_TABLE default
0
0
0

SCALARS 3DELEM_Stress_Y_ float 1
LOOKUP_TABLE default
0
0
0

SCALARS 3DELEM_Stress_Z_ float 1
LOOKUP_TABLE default
0
0
0

