# vtk DataFile Version 3.0
vtk output
ASCII
DATASET UNSTRUCTURED_GRID
FIELD FieldData 2
TIME 1 1 double
1.5003
CYCLE 1 1 int
0
POINTS 8 float
0 10 0
0 12.5 0
2.4985 10 0
2.4985 12.5 0
0 -0.68594 0
0 3.18594 0
2.4985 -0.68594 0
2.4985 3.18594 0

CELLS 2 10
4 0 2 3 1
4 4 6 7 5

CELL_TYPES 2
9
9

POINT_DATA 8
SCALARS NODE_ID int 1
LOOKUP_TABLE default
1
26
2601
2626
15758
15783
18358
18383

CELL_DATA 2
SCALARS ELEMENT_ID int 1
LOOKUP_TABLE default
1000000
1000001

SCALARS PART_ID int 1
LOOKUP_TABLE default
2
3

SCALARS EROSION_STATUS int 1
LOOKUP_TABLE default
1
1

SCALARS 2DELEM_Pressure float 1
LOOKUP_TABLE default
0
0

