# vtk DataFile Version 3.0
vtk output
ASCII
DATASET UNSTRUCTURED_GRID
FIELD FieldData 2
TIME 1 1 double
0
CYCLE 1 1 int
0
POINTS 168 float
0 10 -5
5 10 -5
10 10 -5
15 10 -5
20 10 -5
25 10 -5
30 10 -5
35 10 -5
40 10 -5
45 10 -5
50 10 -5
0 0 0
5 0 0
10 0 0
15 0 0
20 0 0
25 0 0
30 0 0
35 0 0
40 0 0
45 0 0
50 0 0
0 5 0
5 5 0
10 5 0
15 5 0
20 5 0
25 5 0
30 5 0
35 5 0
40 5 0
45 5 0
50 5 0
0 10 0
5 10 0
10 10 0
15 10 0
20 10 0
25 10 0
30 10 0
35 10 0
40 10 0
45 10 0
50 10 0
0 15 0
5 15 0
10 15 0
15 15 0
20 15 0
25 15 0
30 15 0
35 15 0
40 15 0
45 15 0
50 15 0
0 20 0
5 20 0
10 20 0
15 20 0
20 20 0
25 20 0
30 20 0
35 20 0
40 20 0
45 20 0
50 20 0
0 0 5
5 0 5
10 0 5
15 0 5
20 0 5
25 0 5
30 0 5
35 0 5
40 0 5
45 0 5
50 0 5
0 20 5
5 20 5
10 20 5
15 20 5
20 20 5
25 20 5
30 20 5
35 20 5
40 20 5
45 20 5
50 20 5
0 0 10
5 0 10
10 0 10
15 0 10
20 0 10
25 0 10
30 0 10
35 0 10
40 0 10
45 0 10
50 0 10
0 5 10
5 5 10
10 5 10
15 5 10
20 5 10
25 5 10
30 5 10
35 5 10
40 5 10
45 5 10
50 5 10
0 10 10
5 10 10
10 10 10
15 10 10
20 10 10
25 10 10
30 10 10
35 10 10
40 10 10
45 10 10
50 10 10
0 15 10
5 15 10
10 15 10
15 15 10
20 15 10
25 15 10
30 15 10
35 15 10
40 15 10
45 15 10
50 15 10
0 20 10
5 20 10
10 20 10
15 20 10
20 20 10
25 20 10
30 20 10
35 20 10
40 20 10
45 20 10
50 20 10
0 10 15
5 10 15
10 10 15
15 10 15
20 10 15
25 10 15
30 10 15
35 10 15
40 10 15
45 10 15
50 10 15
50 10 5
10 10 5
10 10 5
10 10 5
10 10 5
10 10 5
10 10 5
10 10 5
10 10 5
0 0 0
0 -24.9962 -24.9962
0 24.9962 -24.9962
0 24.9962 24.9962
0 -24.9962 24.9962

CELLS 268 1312
2 154 10
2 154 21
2 154 32
2 154 43
2 154 54
2 154 65
2 154 87
2 154 142
2 154 76
2 154 98
2 154 109
2 154 120
2 154 131
2 154 153
4 55 77 78 56
4 56 78 79 57
4 57 79 80 58
4 58 80 81 59
4 59 81 82 60
4 77 132 133 78
4 78 133 134 79
4 79 134 135 80
4 80 135 136 81
4 81 136 137 82
4 99 88 89 100
4 100 89 90 101
4 101 90 91 102
4 102 91 92 103
4 103 92 93 104
4 110 99 100 111
4 111 100 101 112
4 112 101 102 113
4 113 102 103 114
4 114 103 104 115
4 121 110 111 122
4 122 111 112 123
4 123 112 113 124
4 124 113 114 125
4 125 114 115 126
4 132 121 122 133
4 133 122 123 134
4 134 123 124 135
4 135 124 125 136
4 136 125 126 137
4 110 143 144 111
4 111 144 145 112
4 112 145 146 113
4 113 146 147 114
4 114 147 148 115
4 0 33 34 1
4 1 34 35 2
4 2 35 36 3
4 3 36 37 4
4 4 37 38 5
4 22 11 12 23
4 23 12 13 24
4 24 13 14 25
4 25 14 15 26
4 26 15 16 27
4 33 22 23 34
4 34 23 24 35
4 35 24 25 36
4 36 25 26 37
4 37 26 27 38
4 44 33 34 45
4 45 34 35 46
4 46 35 36 47
4 47 36 37 48
4 48 37 38 49
4 55 44 45 56
4 56 45 46 57
4 57 46 47 58
4 58 47 48 59
4 59 48 49 60
4 11 66 67 12
4 12 67 68 13
4 13 68 69 14
4 14 69 70 15
4 15 70 71 16
4 66 88 89 67
4 67 89 90 68
4 68 90 91 69
4 69 91 92 70
4 70 92 93 71
4 5 38 39 6
4 6 39 40 7
4 7 40 41 8
4 8 41 42 9
4 9 42 43 10
4 27 16 17 28
4 28 17 18 29
4 29 18 19 30
4 30 19 20 31
4 31 20 21 32
4 38 27 28 39
4 39 28 29 40
4 40 29 30 41
4 41 30 31 42
4 42 31 32 43
4 49 38 39 50
4 50 39 40 51
4 51 40 41 52
4 52 41 42 53
4 53 42 43 54
4 60 49 50 61
4 61 50 51 62
4 62 51 52 63
4 63 52 53 64
4 64 53 54 65
4 60 82 83 61
4 61 83 84 62
4 62 84 85 63
4 63 85 86 64
4 64 86 87 65
4 82 137 138 83
4 83 138 139 84
4 84 139 140 85
4 85 140 141 86
4 86 141 142 87
4 16 71 72 17
4 17 72 73 18
4 18 73 74 19
4 19 74 75 20
4 20 75 76 21
4 71 93 94 72
4 72 94 95 73
4 73 95 96 74
4 74 96 97 75
4 75 97 98 76
4 104 93 94 105
4 105 94 95 106
4 106 95 96 107
4 107 96 97 108
4 108 97 98 109
4 115 104 105 116
4 116 105 106 117
4 117 106 107 118
4 118 107 108 119
4 119 108 109 120
4 126 115 116 127
4 127 116 117 128
4 128 117 118 129
4 129 118 119 130
4 130 119 120 131
4 137 126 127 138
4 138 127 128 139
4 139 128 129 140
4 140 129 130 141
4 141 130 131 142
4 115 148 149 116
4 116 149 150 117
4 117 150 151 118
4 118 151 152 119
4 119 152 153 120
4 155 57 79 79
4 155 79 134 134
4 155 101 90 90
4 155 112 101 101
4 155 123 112 112
4 155 134 123 123
4 155 112 145 145
4 155 2 35 35
4 155 24 13 13
4 155 35 24 24
4 155 46 35 35
4 155 57 46 46
4 155 13 68 68
4 155 68 90 90
4 156 57 79 79
4 156 79 134 134
4 156 101 90 90
4 156 112 101 101
4 156 123 112 112
4 156 134 123 123
4 156 112 145 145
4 156 2 35 35
4 156 24 13 13
4 156 35 24 24
4 156 46 35 35
4 156 57 46 46
4 156 13 68 68
4 156 68 90 90
4 157 57 79 79
4 157 79 134 134
4 157 101 90 90
4 157 112 101 101
4 157 123 112 112
4 157 134 123 123
4 157 112 145 145
4 157 2 35 35
4 157 24 13 13
4 157 35 24 24
4 157 46 35 35
4 157 57 46 46
4 157 13 68 68
4 157 68 90 90
4 158 57 79 79
4 158 79 134 134
4 158 101 90 90
4 158 112 101 101
4 158 123 112 112
4 158 134 123 123
4 158 112 145 145
4 158 2 35 35
4 158 24 13 13
4 158 35 24 24
4 158 46 35 35
4 158 57 46 46
4 158 13 68 68
4 158 68 90 90
4 159 57 79 79
4 159 79 134 134
4 159 101 90 90
4 159 112 101 101
4 159 123 112 112
4 159 134 123 123
4 159 112 145 145
4 159 2 35 35
4 159 24 13 13
4 159 35 24 24
4 159 46 35 35
4 159 57 46 46
4 159 13 68 68
4 159 68 90 90
4 160 57 79 79
4 160 79 134 134
4 160 101 90 90
4 160 112 101 101
4 160 123 112 112
4 160 134 123 123
4 160 112 145 145
4 160 2 35 35
4 160 24 13 13
4 160 35 24 24
4 160 46 35 35
4 160 57 46 46
4 160 13 68 68
4 160 68 90 90
4 161 57 79 79
4 161 79 134 134
4 161 101 90 90
4 161 112 101 101
4 161 123 112 112
4 161 134 123 123
4 161 112 145 145
4 161 2 35 35
4 161 24 13 13
4 161 35 24 24
4 161 46 35 35
4 161 57 46 46
4 161 13 68 68
4 161 68 90 90
4 162 57 79 79
4 162 79 134 134
4 162 101 90 90
4 162 112 101 101
4 162 123 112 112
4 162 134 123 123
4 162 112 145 145
4 162 2 35 35
4 162 24 13 13
4 162 35 24 24
4 162 46 35 35
4 162 57 46 46
4 162 13 68 68
4 162 68 90 90
4 163 163 163 163
4 164 167 166 165

CELL_TYPES 268
3
3
3
3
3
3
3
3
3
3
3
3
3
3
9
9
9
9
9
9
9
9
9
9
9
9
9
9
9
9
9
9
9
9
9
9
9
9
9
9
9
9
9
9
9
9
9
9
9
9
9
9
9
9
9
9
9
9
9
9
9
9
9
9
9
9
9
9
9
9
9
9
9
9
9
9
9
9
9
9
9
9
9
9
9
9
9
9
9
9
9
9
9
9
9
9
9
9
9
9
9
9
9
9
9
9
9
9
9
9
9
9
9
9
9
9
9
9
9
9
9
9
9
9
9
9
9
9
9
9
9
9
9
9
9
9
9
9
9
9
9
9
9
9
9
9
9
9
9
9
9
9
9
9
5
5
5
5
5
5
5
5
5
5
5
5
5
5
5
5
5
5
5
5
5
5
5
5
5
5
5
5
5
5
5
5
5
5
5
5
5
5
5
5
5
5
5
5
5
5
5
5
5
5
5
5
5
5
5
5
5
5
5
5
5
5
5
5
5
5
5
5
5
5
5
5
5
5
5
5
5
5
5
5
5
5
5
5
5
5
5
5
5
5
5
5
5
5
5
5
5
5
5
5
5
5
5
5
5
5
5
5
5
5
5
5
9
9

POINT_DATA 168
SCALARS NODE_ID int 1
LOOKUP_TABLE default
1
2
3
4
5
6
7
8
9
10
11
12
13
14
15
16
17
18
19
20
21
22
23
24
25
26
27
28
29
30
31
32
33
34
35
36
37
38
39
40
41
42
43
44
45
46
47
48
49
50
51
52
53
54
55
56
57
58
59
60
61
62
63
64
65
66
67
68
69
70
71
72
73
74
75
76
77
78
79
80
81
82
83
84
85
86
87
88
89
90
91
92
93
94
95
96
97
98
99
100
101
102
103
104
105
106
107
108
109
110
111
112
113
114
115
116
117
118
119
120
121
122
123
124
125
126
127
128
129
130
131
132
133
134
135
136
137
138
139
140
141
142
143
144
145
146
147
148
149
150
151
152
153
154
155
0
0
0
0
0
0
0
0
0
0
0
0
0

CELL_DATA 268
SCALARS ELEMENT_ID int 1
LOOKUP_TABLE default
0
0
0
0
0
0
0
0
0
0
0
0
0
0
61
62
63
64
65
81
82
83
84
85
91
92
93
94
95
101
102
103
104
105
111
112
113
114
115
121
122
123
124
125
131
132
133
134
135
1
2
3
4
5
11
12
13
14
15
21
22
23
24
25
31
32
33
34
35
41
42
43
44
45
51
52
53
54
55
71
72
73
74
75
6
7
8
9
10
16
17
18
19
20
26
27
28
29
30
36
37
38
39
40
46
47
48
49
50
66
67
68
69
70
86
87
88
89
90
56
57
58
59
60
76
77
78
79
80
96
97
98
99
100
106
107
108
109
110
116
117
118
119
120
126
127
128
129
130
136
137
138
139
140
0
0
0
0
0
0
0
0
0
0
0
0
0
0
0
0
0
0
0
0
0
0
0
0
0
0
0
0
0
0
0
0
0
0
0
0
0
0
0
0
0
0
0
0
0
0
0
0
0
0
0
0
0
0
0
0
0
0
0
0
0
0
0
0
0
0
0
0
0
0
0
0
0
0
0
0
0
0
0
0
0
0
0
0
0
0
0
0
0
0
0
0
0
0
0
0
0
0
0
0
0
0
0
0
0
0
0
0
0
0
0
0
0
0

SCALARS PART_ID int 1
LOOKUP_TABLE default
155
155
155
155
155
155
155
155
155
155
155
155
155
155
1
1
1
1
1
1
1
1
1
1
1
1
1
1
1
1
1
1
1
1
1
1
1
1
1
1
1
1
1
1
1
1
1
1
1
1
1
1
1
1
1
1
1
1
1
1
1
1
1
1
1
1
1
1
1
1
1
1
1
1
1
1
1
1
1
1
1
1
1
1
1
1
1
1
1
1
1
1
1
1
1
1
1
1
1
1
1
1
1
1
1
1
1
1
1
1
1
1
1
1
1
1
1
1
1
1
1
1
1
1
1
1
1
1
1
1
1
1
1
1
1
1
1
1
1
1
1
1
1
1
1
1
1
1
1
1
1
1
1
1
1
1
1
1
1
1
1
1
1
1
1
1
1
1
2
2
2
2
2
2
2
2
2
2
2
2
2
2
3
3
3
3
3
3
3
3
3
3
3
3
3
3
4
4
4
4
4
4
4
4
4
4
4
4
4
4
5
5
5
5
5
5
5
5
5
5
5
5
5
5
6
6
6
6
6
6
6
6
6
6
6
6
6
6
7
7
7
7
7
7
7
7
7
7
7
7
7
7
8
8
8
8
8
8
8
8
8
8
8
8
8
8
1
1

SCALARS EROSION_STATUS int 1
LOOKUP_TABLE default
1
1
1
1
1
1
1
1
1
1
1
1
1
1
1
1
1
1
1
1
1
1
1
1
1
1
1
1
1
1
1
1
1
1
1
1
1
1
1
1
1
1
1
1
1
1
1
1
1
1
1
1
1
1
1
1
1
1
1
1
1
1
1
1
1
1
1
1
1
1
1
1
1
1
1
1
1
1
1
1
1
1
1
1
1
1
1
1
1
1
1
1
1
1
1
1
1
1
1
1
1
1
1
1
1
1
1
1
1
1
1
1
1
1
1
1
1
1
1
1
1
1
1
1
1
1
1
1
1
1
1
1
1
1
1
1
1
1
1
1
1
1
1
1
1
1
1
1
1
1
1
1
1
1
1
1
1
1
1
1
1
1
1
1
1
1
1
1
1
1
1
1
1
1
1
1
1
1
1
1
1
1
1
1
1
1
1
1
1
1
1
1
1
1
1
1
1
1
1
1
1
1
1
1
1
1
1
1
1
1
1
1
1
1
1
1
1
1
1
1
1
1
1
1
1
1
1
1
1
1
1
1
1
1
1
1
1
1
1
1
1
1
1
1
1
1
1
1
1
1
1
1
1
1
1
1
1
1
1
1
1
1
1
1
1
1
1
1

