# vtk DataFile Version 3.0
vtk output
ASCII
DATASET UNSTRUCTURED_GRID
FIELD FieldData 2
TIME 1 1 double
0
CYCLE 1 1 int
0
POINTS 850 float
0 80 0
10 80 0
20 80 0
30 80 0
40 80 0
50 80 0
60 80 0
70 80 0
80 80 0
90 80 0
100 80 0
110 80 0
120 80 0
130 80 0
140 80 0
150 80 0
160 80 0
170 75 0
180 70 0
190 65 0
200 60 0
210 55 0
220 50 0
230 45 0
240 40 0
250 35 0
260 30 0
270 25 0
280 20 0
290 15 0
300 10 0
310 5 0
320 0 0
330 0 0
340 0 0
350 0 0
360 0 0
370 0 0
380 0 0
390 0 0
400 0 0
410 0 0
420 0 0
430 0 0
440 0 0
450 0 0
460 0 0
470 0 0
480 0 0
0 0 0
0 80 10
10 80 10
20 80 10
30 80 10
40 80 10
50 80 10
60 80 10
70 80 10
80 80 10
90 80 10
100 80 10
110 80 10
120 80 10
130 80 10
140 80 10
150 80 10
160 80 10
170 75 10
180 70 10
190 65 10
200 60 10
210 55 10
220 50 10
230 45 10
240 40 10
250 35 10
260 30 10
270 25 10
280 20 10
290 15 10
300 10 10
310 5 10
320 0 10
330 0 10
340 0 10
350 0 10
360 0 10
370 0 10
380 0 10
390 0 10
400 0 10
410 0 10
420 0 10
430 0 10
440 0 10
450 0 10
460 0 10
470 0 10
480 0 10
0 0 0
0 80 20
10 80 20
20 80 20
30 80 20
40 80 20
50 80 20
60 80 20
70 80 20
80 80 20
90 80 20
100 80 20
110 80 20
120 80 20
130 80 20
140 80 20
150 80 20
160 80 20
170 75 20
180 70 20
190 65 20
200 60 20
210 55 20
220 50 20
230 45 20
240 40 20
250 35 20
260 30 20
270 25 20
280 20 20
290 15 20
300 10 20
310 5 20
320 0 20
330 0 20
340 0 20
350 0 20
360 0 20
370 0 20
380 0 20
390 0 20
400 0 20
410 0 20
420 0 20
430 0 20
440 0 20
450 0 20
460 0 20
470 0 20
480 0 20
0 0 0
0 80 30
10 80 30
20 80 30
30 80 30
40 80 30
50 80 30
60 80 30
70 80 30
80 80 30
90 80 30
100 80 30
110 80 30
120 80 30
130 80 30
140 80 30
150 80 30
160 80 30
170 75 30
180 70 30
190 65 30
200 60 30
210 55 30
220 50 30
230 45 30
240 40 30
250 35 30
260 30 30
270 25 30
280 20 30
290 15 30
300 10 30
310 5 30
320 0 30
330 0 30
340 0 30
350 0 30
360 0 30
370 0 30
380 0 30
390 0 30
400 0 30
410 0 30
420 0 30
430 0 30
440 0 30
450 0 30
460 0 30
470 0 30
480 0 30
0 0 0
0 80 40
10 80 40
20 80 40
30 80 40
40 80 40
50 80 40
60 80 40
70 80 40
80 80 40
90 80 40
100 80 40
110 80 40
120 80 40
130 80 40
140 80 40
150 80 40
160 80 40
170 75 40
180 70 40
190 65 40
200 60 40
210 55 40
220 50 40
230 45 40
240 40 40
250 35 40
260 30 40
270 25 40
280 20 40
290 15 40
300 10 40
310 5 40
320 0 40
330 0 40
340 0 40
350 0 40
360 0 40
370 0 40
380 0 40
390 0 40
400 0 40
410 0 40
420 0 40
430 0 40
440 0 40
450 0 40
460 0 40
470 0 40
480 0 40
0 0 0
0 70 40
10 70 40
20 70 40
30 70 40
40 70 40
50 70 40
60 70 40
70 70 40
80 70 40
90 70 40
100 70 40
110 70 40
120 70 40
130 70 40
140 70 40
150 70 40
160 70 40
170 65 40
180 60 40
190 55 40
200 50 40
210 45 40
220 40 40
230 35 40
240 30 40
250 25 40
260 20 40
270 15 40
280 10 40
290 5 40
300 0 40
310 -5 40
320 -10 40
330 -10 40
340 -10 40
350 -10 40
360 -10 40
370 -10 40
380 -10 40
390 -10 40
400 -10 40
410 -10 40
420 -10 40
430 -10 40
440 -10 40
450 -10 40
460 -10 40
470 -10 40
480 -10 40
0 0 0
0 60 40
10 60 40
20 60 40
30 60 40
40 60 40
50 60 40
60 60 40
70 60 40
80 60 40
90 60 40
100 60 40
110 60 40
120 60 40
130 60 40
140 60 40
150 60 40
160 60 40
170 55 40
180 50 40
190 45 40
200 40 40
210 35 40
220 30 40
230 25 40
240 20 40
250 15 40
260 10 40
270 5 40
280 0 40
290 -5 40
300 -10 40
310 -15 40
320 -20 40
330 -20 40
340 -20 40
350 -20 40
360 -20 40
370 -20 40
380 -20 40
390 -20 40
400 -20 40
410 -20 40
420 -20 40
430 -20 40
440 -20 40
450 -20 40
460 -20 40
470 -20 40
480 -20 40
0 0 0
0 50 40
10 50 40
20 50 40
30 50 40
40 50 40
50 50 40
60 50 40
70 50 40
80 50 40
90 50 40
100 50 40
110 50 40
120 50 40
130 50 40
140 50 40
150 50 40
160 50 40
170 45 40
180 40 40
190 35 40
200 30 40
210 25 40
220 20 40
230 15 40
240 10 40
250 5 40
260 0 40
270 -5 40
280 -10 40
290 -15 40
300 -20 40
310 -25 40
320 -30 40
330 -30 40
340 -30 40
350 -30 40
360 -30 40
370 -30 40
380 -30 40
390 -30 40
400 -30 40
410 -30 40
420 -30 40
430 -30 40
440 -30 40
450 -30 40
460 -30 40
470 -30 40
480 -30 40
0 0 0
0 40 40
10 40 40
20 40 40
30 40 40
40 40 40
50 40 40
60 40 40
70 40 40
80 40 40
90 40 40
100 40 40
110 40 40
120 40 40
130 40 40
140 40 40
150 40 40
160 40 40
170 35 40
180 30 40
190 25 40
200 20 40
210 15 40
220 10 40
230 5 40
240 0 40
250 -5 40
260 -10 40
270 -15 40
280 -20 40
290 -25 40
300 -30 40
310 -35 40
320 -40 40
330 -40 40
340 -40 40
350 -40 40
360 -40 40
370 -40 40
380 -40 40
390 -40 40
400 -40 40
410 -40 40
420 -40 40
430 -40 40
440 -40 40
450 -40 40
460 -40 40
470 -40 40
480 -40 40
0 0 0
0 30 40
10 30 40
20 30 40
30 30 40
40 30 40
50 30 40
60 30 40
70 30 40
80 30 40
90 30 40
100 30 40
110 30 40
120 30 40
130 30 40
140 30 40
150 30 40
160 30 40
170 25 40
180 20 40
190 15 40
200 10 40
210 5 40
220 0 40
230 -5 40
240 -10 40
250 -15 40
260 -20 40
270 -25 40
280 -30 40
290 -35 40
300 -40 40
310 -45 40
320 -50 40
330 -50 40
340 -50 40
350 -50 40
360 -50 40
370 -50 40
380 -50 40
390 -50 40
400 -50 40
410 -50 40
420 -50 40
430 -50 40
440 -50 40
450 -50 40
460 -50 40
470 -50 40
480 -50 40
0 0 0
0 20 40
10 20 40
20 20 40
30 20 40
40 20 40
50 20 40
60 20 40
70 20 40
80 20 40
90 20 40
100 20 40
110 20 40
120 20 40
130 20 40
140 20 40
150 20 40
160 20 40
170 15 40
180 10 40
190 5 40
200 0 40
210 -5 40
220 -10 40
230 -15 40
240 -20 40
250 -25 40
260 -30 40
270 -35 40
280 -40 40
290 -45 40
300 -50 40
310 -55 40
320 -60 40
330 -60 40
340 -60 40
350 -60 40
360 -60 40
370 -60 40
380 -60 40
390 -60 40
400 -60 40
410 -60 40
420 -60 40
430 -60 40
440 -60 40
450 -60 40
460 -60 40
470 -60 40
480 -60 40
0 0 0
0 10 40
10 10 40
20 10 40
30 10 40
40 10 40
50 10 40
60 10 40
70 10 40
80 10 40
90 10 40
100 10 40
110 10 40
120 10 40
130 10 40
140 10 40
150 10 40
160 10 40
170 5 40
180 0 40
190 -5 40
200 -10 40
210 -15 40
220 -20 40
230 -25 40
240 -30 40
250 -35 40
260 -40 40
270 -45 40
280 -50 40
290 -55 40
300 -60 40
310 -65 40
320 -70 40
330 -70 40
340 -70 40
350 -70 40
360 -70 40
370 -70 40
380 -70 40
390 -70 40
400 -70 40
410 -70 40
420 -70 40
430 -70 40
440 -70 40
450 -70 40
460 -70 40
470 -70 40
480 -70 40
0 0 0
0 0 40
10 0 40
20 0 40
30 0 40
40 0 40
50 0 40
60 0 40
70 0 40
80 0 40
90 0 40
100 0 40
110 0 40
120 0 40
130 0 40
140 0 40
150 0 40
160 0 40
170 -5 40
180 -10 40
190 -15 40
200 -20 40
210 -25 40
220 -30 40
230 -35 40
240 -40 40
250 -45 40
260 -50 40
270 -55 40
280 -60 40
290 -65 40
300 -70 40
310 -75 40
320 -80 40
330 -80 40
340 -80 40
350 -80 40
360 -80 40
370 -80 40
380 -80 40
390 -80 40
400 -80 40
410 -80 40
420 -80 40
430 -80 40
440 -80 40
450 -80 40
460 -80 40
470 -80 40
480 -80 40
0 0 0
0 0 30
10 0 30
20 0 30
30 0 30
40 0 30
50 0 30
60 0 30
70 0 30
80 0 30
90 0 30
100 0 30
110 0 30
120 0 30
130 0 30
140 0 30
150 0 30
160 0 30
170 -5 30
180 -10 30
190 -15 30
200 -20 30
210 -25 30
220 -30 30
230 -35 30
240 -40 30
250 -45 30
260 -50 30
270 -55 30
280 -60 30
290 -65 30
300 -70 30
310 -75 30
320 -80 30
330 -80 30
340 -80 30
350 -80 30
360 -80 30
370 -80 30
380 -80 30
390 -80 30
400 -80 30
410 -80 30
420 -80 30
430 -80 30
440 -80 30
450 -80 30
460 -80 30
470 -80 30
480 -80 30
0 0 0
0 0 20
10 0 20
20 0 20
30 0 20
40 0 20
50 0 20
60 0 20
70 0 20
80 0 20
90 0 20
100 0 20
110 0 20
120 0 20
130 0 20
140 0 20
150 0 20
160 0 20
170 -5 20
180 -10 20
190 -15 20
200 -20 20
210 -25 20
220 -30 20
230 -35 20
240 -40 20
250 -45 20
260 -50 20
270 -55 20
280 -60 20
290 -65 20
300 -70 20
310 -75 20
320 -80 20
330 -80 20
340 -80 20
350 -80 20
360 -80 20
370 -80 20
380 -80 20
390 -80 20
400 -80 20
410 -80 20
420 -80 20
430 -80 20
440 -80 20
450 -80 20
460 -80 20
470 -80 20
480 -80 20
0 0 0
0 0 10
10 0 10
20 0 10
30 0 10
40 0 10
50 0 10
60 0 10
70 0 10
80 0 10
90 0 10
100 0 10
110 0 10
120 0 10
130 0 10
140 0 10
150 0 10
160 0 10
170 -5 10
180 -10 10
190 -15 10
200 -20 10
210 -25 10
220 -30 10
230 -35 10
240 -40 10
250 -45 10
260 -50 10
270 -55 10
280 -60 10
290 -65 10
300 -70 10
310 -75 10
320 -80 10
330 -80 10
340 -80 10
350 -80 10
360 -80 10
370 -80 10
380 -80 10
390 -80 10
400 -80 10
410 -80 10
420 -80 10
430 -80 10
440 -80 10
450 -80 10
460 -80 10
470 -80 10
480 -80 10
0 0 0
0 0 0
10 0 0
20 0 0
30 0 0
40 0 0
50 0 0
60 0 0
70 0 0
80 0 0
90 0 0
100 0 0
110 0 0
120 0 0
130 0 0
140 0 0
150 0 0
160 0 0
170 -5 0
180 -10 0
190 -15 0
200 -20 0
210 -25 0
220 -30 0
230 -35 0
240 -40 0
250 -45 0
260 -50 0
270 -55 0
280 -60 0
290 -65 0
300 -70 0
310 -75 0
320 -80 0
330 -80 0
340 -80 0
350 -80 0
360 -80 0
370 -80 0
380 -80 0
390 -80 0
400 -80 0
410 -80 0
420 -80 0
430 -80 0
440 -80 0
450 -80 0
460 -80 0
470 -80 0
480 -80 0
0 0 0

CELLS 768 3840
4 0 1 51 50
4 1 2 52 51
4 2 3 53 52
4 3 4 54 53
4 4 5 55 54
4 5 6 56 55
4 6 7 57 56
4 7 8 58 57
4 8 9 59 58
4 9 10 60 59
4 10 11 61 60
4 11 12 62 61
4 50 51 101 100
4 51 52 102 101
4 52 53 103 102
4 53 54 104 103
4 54 55 105 104
4 55 56 106 105
4 56 57 107 106
4 57 58 108 107
4 58 59 109 108
4 59 60 110 109
4 60 61 111 110
4 61 62 112 111
4 100 101 151 150
4 101 102 152 151
4 102 103 153 152
4 103 104 154 153
4 104 105 155 154
4 105 106 156 155
4 106 107 157 156
4 107 108 158 157
4 108 109 159 158
4 109 110 160 159
4 110 111 161 160
4 111 112 162 161
4 150 151 201 200
4 151 152 202 201
4 152 153 203 202
4 153 154 204 203
4 154 155 205 204
4 155 156 206 205
4 156 157 207 206
4 157 158 208 207
4 158 159 209 208
4 159 160 210 209
4 160 161 211 210
4 161 162 212 211
4 12 13 63 62
4 13 14 64 63
4 14 15 65 64
4 15 16 66 65
4 16 17 67 66
4 17 18 68 67
4 18 19 69 68
4 19 20 70 69
4 20 21 71 70
4 21 22 72 71
4 22 23 73 72
4 62 63 113 112
4 63 64 114 113
4 64 65 115 114
4 65 66 116 115
4 66 67 117 116
4 67 68 118 117
4 68 69 119 118
4 69 70 120 119
4 70 71 121 120
4 71 72 122 121
4 72 73 123 122
4 112 113 163 162
4 113 114 164 163
4 114 115 165 164
4 115 116 166 165
4 116 117 167 166
4 117 118 168 167
4 118 119 169 168
4 119 120 170 169
4 120 121 171 170
4 121 122 172 171
4 122 123 173 172
4 162 163 213 212
4 163 164 214 213
4 164 165 215 214
4 165 166 216 215
4 166 167 217 216
4 167 168 218 217
4 168 169 219 218
4 169 170 220 219
4 170 171 221 220
4 171 172 222 221
4 172 173 223 222
4 36 37 87 86
4 37 38 88 87
4 38 39 89 88
4 39 40 90 89
4 40 41 91 90
[...]
POINT_DATA 850
SCALARS NODE_ID int 1
LOOKUP_TABLE default
1
2
3
4
5
6
7
8
9
10
11
12
13
14
15
16
17
18
19
20
21
22
23
24
25
26
27
28
29
30
31
32
33
34
35
36
37
38
39
40
41
42
43
44
45
46
47
48
49
50
51
52
53
54
55
56
57
58
59
60
61
62
63
64
65
66
67
68
69
70
71
72
73
74
75
76
77
78
79
80
81
82
83
84
85
86
87
88
89
90
91
92
93
94
95
96
97
98
99
100
101
102
103
104
105
106
107
108
109
110
111
112
113
114
115
116
117
118
119
120
121
122
123
124
125
126
127
128
129
130
131
132
133
134
135
136
137
138
139
140
141
142
143
144
145
146
147
148
149
150
151
152
153
154
155
156
157
158
159
160
161
162
163
164
165
166
167
168
169
170
171
172
173
174
175
176
177
178
179
180
181
182
183
184
185
186
187
188
189
190
191
192
193
194
195
196
197
198
199
200
201
202
203
204
205
206
207
208
209
210
211
212
213
214
215
216
217
218
219
220
221
222
223
224
225
226
227
228
229
230
231
232
233
234
235
236
237
238
239
240
241
242
243
244
245
246
247
248
249
250
251
252
253
254
255
256
257
258
259
260
261
262
263
264
265
266
267
268
269
270
271
272
273
274
275
276
277
278
279
280
281
282
283
284
285
286
287
288
289
290
291
292
293
294
295
296
297
298
299
300
301
302
303
304
305
306
307
308
309
310
311
312
313
314
315
316
317
318
319
320
321
322
323
324
325
326
327
328
329
330
331
332
333
334
335
336
337
338
339
340
341
342
343
344
345
346
347
348
349
350
351
352
353
354
355
356
357
358
359
360
361
362
363
364
365
366
367
368
369
370
371
372
373
374
375
376
377
378
379
380
381
382
383
384
385
386
387
388
389
390
391
392
393
394
395
396
397
398
399
400
401
402
403
404
405
406
407
408
409
410
411
412
413
414
415
416
417
418
419
420
421
422
423
424
425
426
427
428
429
430
431
432
433
434
435
436
437
438
439
440
441
442
443
444
445
446
447
448
449
450
451
452
453
454
455
456
457
458
459
460
461
462
463
464
465
466
467
468
469
470
471
472
473
474
475
476
477
478
479
480
481
482
483
484
485
486
487
488
489
490
491
492
493
494
495
496
497
498
499
500
501
502
503
504
505
506
507
508
509
510
511
512
513
514
515
516
517
518
519
520
521
522
523
524
525
526
527
528
529
530
531
532
533
534
535
536
537
538
539
540
541
542
543
544
545
546
547
548
549
550
551
552
553
554
555
556
557
558
559
560
561
562
563
564
565
566
567
568
569
570
571
572
573
574
575
576
577
578
579
580
581
582
583
584
585
586
587
588
589
590
591
592
593
594
595
596
597
598
599
600
601
602
603
604
605
606
607
608
609
610
611
612
613
614
615
616
617
618
619
620
621
622
623
624
625
626
627
628
629
630
631
632
633
634
635
636
637
638
639
640
641
642
643
644
645
646
647
648
649
650
651
652
653
654
655
656
657
658
659
660
661
662
663
664
665
666
667
668
669
670
671
672
673
674
675
676
677
678
679
680
681
682
683
684
685
686
687
688
689
690
691
692
693
694
695
696
697
698
699
700
701
702
703
704
705
706
707
708
709
710
711
712
713
714
715
716
717
718
719
720
721
722
723
724
725
726
727
728
729
730
731
732
733
734
735
736
737
738
739
740
741
742
743
744
745
746
747
748
749
750
751
752
753
754
755
756
757
758
759
760
761
762
763
764
765
766
767
768
769
770
771
772
773
774
775
776
777
778
779
780
781
782
783
784
785
786
787
788
789
790
791
792
793
794
795
796
797
798
799
800
801
802
803
804
805
806
807
808
809
810
811
812
813
814
815
816
817
818
819
820
821
822
823
824
825
826
827
828
829
830
831
832
833
834
835
836
837
838
839
840
841
842
843
844
845
846
847
848
849
850

VECTORS Velocity float
5 0 0
0 0 0
0 0 0
0 0 0
0 0 0
0 0 0
0 0 0
0 0 0
0 0 0
0 0 0
0 0 0
0 0 0
0 0 0
0 0 0
0 0 0
0 0 0
0 0 0
0 0 0
0 0 0
0 0 0
0 0 0
0 0 0
0 0 0
0 0 0
0 0 0
0 0 0
0 0 0
0 0 0
0 0 0
0 0 0
0 0 0
0 0 0
0 0 0
0 0 0
0 0 0
0 0 0
0 0 0
0 0 0
0 0 0
0 0 0
0 0 0
0 0 0
0 0 0
0 0 0
0 0 0
0 0 0
0 0 0
0 0 0
0 0 0
0 0 0
5 0 0
0 0 0
0 0 0
0 0 0
0 0 0
0 0 0
0 0 0
0 0 0
0 0 0
0 0 0
0 0 0
0 0 0
0 0 0
0 0 0
0 0 0
0 0 0
0 0 0
0 0 0
0 0 0
0 0 0
0 0 0
0 0 0
0 0 0
0 0 0
0 0 0
0 0 0
0 0 0
0 0 0
0 0 0
0 0 0
0 0 0
0 0 0
0 0 0
0 0 0
0 0 0
0 0 0
0 0 0
0 0 0
0 0 0
0 0 0
0 0 0
0 0 0
0 0 0
0 0 0
0 0 0
0 0 0
0 0 0
0 0 0
0 0 0
0 0 0
5 0 0
0 0 0
0 0 0
0 0 0
0 0 0
0 0 0
0 0 0
0 0 0
0 0 0
0 0 0
0 0 0
0 0 0
0 0 0
0 0 0
0 0 0
0 0 0
0 0 0
0 0 0
0 0 0
0 0 0
0 0 0
0 0 0
0 0 0
0 0 0
0 0 0
0 0 0
0 0 0
0 0 0
0 0 0
0 0 0
0 0 0
0 0 0
0 0 0
0 0 0
0 0 0
0 0 0
0 0 0
0 0 0
0 0 0
0 0 0
0 0 0
0 0 0
0 0 0
0 0 0
0 0 0
0 0 0
0 0 0
0 0 0
0 0 0
0 0 0
5 0 0
0 0 0
0 0 0
0 0 0
0 0 0
0 0 0
0 0 0
0 0 0
0 0 0
0 0 0
0 0 0
0 0 0
0 0 0
0 0 0
0 0 0
0 0 0
0 0 0
0 0 0
0 0 0
0 0 0
0 0 0
0 0 0
0 0 0
0 0 0
0 0 0
0 0 0
0 0 0
0 0 0
0 0 0
0 0 0
0 0 0
0 0 0
0 0 0
0 0 0
0 0 0
0 0 0
0 0 0
0 0 0
0 0 0
0 0 0
0 0 0
0 0 0
0 0 0
0 0 0
0 0 0
0 0 0
0 0 0
0 0 0
0 0 0
0 0 0
5 0 0
0 0 0
0 0 0
0 0 0
0 0 0
0 0 0
0 0 0
0 0 0
0 0 0
0 0 0
0 0 0
0 0 0
0 0 0
0 0 0
0 0 0
0 0 0
0 0 0
0 0 0
0 0 0
0 0 0
0 0 0
0 0 0
0 0 0
0 0 0
0 0 0
0 0 0
0 0 0
0 0 0
0 0 0
0 0 0
0 0 0
0 0 0
0 0 0
0 0 0
0 0 0
0 0 0
0 0 0
0 0 0
0 0 0
0 0 0
0 0 0
0 0 0
0 0 0
0 0 0
0 0 0
0 0 0
0 0 0
0 0 0
0 0 0
0 0 0
5 0 0
0 0 0
0 0 0
0 0 0
0 0 0
0 0 0
0 0 0
0 0 0
0 0 0
0 0 0
0 0 0
0 0 0
0 0 0
0 0 0
0 0 0
0 0 0
0 0 0
0 0 0
0 0 0
0 0 0
0 0 0
0 0 0
0 0 0
0 0 0
0 0 0
0 0 0
0 0 0
0 0 0
0 0 0
0 0 0
0 0 0
0 0 0
0 0 0
0 0 0
0 0 0
0 0 0
0 0 0
0 0 0
0 0 0
0 0 0
0 0 0
0 0 0
0 0 0
0 0 0
0 0 0
0 0 0
0 0 0
0 0 0
0 0 0
0 0 0
5 0 0
0 0 0
0 0 0
0 0 0
0 0 0
0 0 0
0 0 0
0 0 0
0 0 0
0 0 0
0 0 0
0 0 0
0 0 0
0 0 0
0 0 0
0 0 0
0 0 0
0 0 0
0 0 0
0 0 0
0 0 0
0 0 0
0 0 0
0 0 0
0 0 0
0 0 0
0 0 0
0 0 0
0 0 0
0 0 0
0 0 0
0 0 0
0 0 0
0 0 0
0 0 0
0 0 0
0 0 0
0 0 0
0 0 0
0 0 0
0 0 0
0 0 0
0 0 0
0 0 0
0 0 0
0 0 0
0 0 0
0 0 0
0 0 0
0 0 0
5 0 0
0 0 0
0 0 0
0 0 0
0 0 0
0 0 0
0 0 0
0 0 0
0 0 0
0 0 0
0 0 0
0 0 0
0 0 0
0 0 0
0 0 0
0 0 0
0 0 0
0 0 0
0 0 0
0 0 0
0 0 0
0 0 0
0 0 0
0 0 0
0 0 0
0 0 0
0 0 0
0 0 0
0 0 0
0 0 0
0 0 0
0 0 0
0 0 0
0 0 0
0 0 0
0 0 0
0 0 0
0 0 0
0 0 0
0 0 0
0 0 0
0 0 0
0 0 0
0 0 0
0 0 0
0 0 0
0 0 0
0 0 0
0 0 0
0 0 0
5 0 0
0 0 0
0 0 0
0 0 0
0 0 0
0 0 0
0 0 0
0 0 0
0 0 0
0 0 0
0 0 0
0 0 0
0 0 0
0 0 0
0 0 0
0 0 0
0 0 0
0 0 0
0 0 0
0 0 0
0 0 0
0 0 0
0 0 0
0 0 0
0 0 0
0 0 0
0 0 0
0 0 0
0 0 0
0 0 0
0 0 0
0 0 0
0 0 0
0 0 0
0 0 0
0 0 0
0 0 0
0 0 0
0 0 0
0 0 0
0 0 0
0 0 0
0 0 0
0 0 0
0 0 0
0 0 0
0 0 0
0 0 0
0 0 0
0 0 0
5 0 0
0 0 0
0 0 0
0 0 0
0 0 0
0 0 0
0 0 0
0 0 0
0 0 0
0 0 0
0 0 0
0 0 0
0 0 0
0 0 0
0 0 0
0 0 0
0 0 0
0 0 0
0 0 0
0 0 0
0 0 0
0 0 0
0 0 0
0 0 0
0 0 0
0 0 0
0 0 0
0 0 0
0 0 0
0 0 0
0 0 0
0 0 0
0 0 0
0 0 0
0 0 0
0 0 0
0 0 0
0 0 0
0 0 0
0 0 0
0 0 0
0 0 0
0 0 0
0 0 0
0 0 0
0 0 0
0 0 0
0 0 0
0 0 0
0 0 0
5 0 0
0 0 0
0 0 0
0 0 0
0 0 0
0 0 0
0 0 0
0 0 0
0 0 0
0 0 0
0 0 0
0 0 0
0 0 0
0 0 0
0 0 0
0 0 0
0 0 0
0 0 0
0 0 0
0 0 0
0 0 0
0 0 0
0 0 0
0 0 0
0 0 0
0 0 0
0 0 0
0 0 0
0 0 0
0 0 0
0 0 0
0 0 0
0 0 0
0 0 0
0 0 0
0 0 0
0 0 0
0 0 0
0 0 0
0 0 0
0 0 0
0 0 0
0 0 0
0 0 0
0 0 0
0 0 0
0 0 0
0 0 0
0 0 0
0 0 0
5 0 0
0 0 0
0 0 0
0 0 0
0 0 0
0 0 0
0 0 0
0 0 0
0 0 0
0 0 0
0 0 0
0 0 0
0 0 0
0 0 0
0 0 0
0 0 0
0 0 0
0 0 0
0 0 0
0 0 0
0 0 0
0 0 0
0 0 0
0 0 0
0 0 0
0 0 0
0 0 0
0 0 0
0 0 0
0 0 0
0 0 0
0 0 0
0 0 0
0 0 0
0 0 0
0 0 0
0 0 0
0 0 0
0 0 0
0 0 0
0 0 0
0 0 0
0 0 0
0 0 0
0 0 0
0 0 0
0 0 0
0 0 0
0 0 0
0 0 0
5 0 0
0 0 0
0 0 0
0 0 0
0 0 0
0 0 0
0 0 0
0 0 0
0 0 0
0 0 0
0 0 0
0 0 0
0 0 0
0 0 0
0 0 0
0 0 0
0 0 0
0 0 0
0 0 0
0 0 0
0 0 0
0 0 0
0 0 0
0 0 0
0 0 0
0 0 0
0 0 0
0 0 0
0 0 0
0 0 0
0 0 0
0 0 0
0 0 0
0 0 0
0 0 0
0 0 0
0 0 0
0 0 0
0 0 0
0 0 0
0 0 0
0 0 0
0 0 0
0 0 0
0 0 0
0 0 0
0 0 0
0 0 0
0 0 0
0 0 0
5 0 0
0 0 0
0 0 0
0 0 0
0 0 0
0 0 0
0 0 0
0 0 0
0 0 0
0 0 0
0 0 0
0 0 0
0 0 0
0 0 0
0 0 0
0 0 0
0 0 0
0 0 0
0 0 0
0 0 0
0 0 0
0 0 0
0 0 0
0 0 0
0 0 0
0 0 0
0 0 0
0 0 0
0 0 0
0 0 0
0 0 0
0 0 0
0 0 0
0 0 0
0 0 0
0 0 0
0 0 0
0 0 0
0 0 0
0 0 0
0 0 0
0 0 0
0 0 0
0 0 0
0 0 0
0 0 0
0 0 0
0 0 0
0 0 0
0 0 0
5 0 0
0 0 0
0 0 0
0 0 0
0 0 0
0 0 0
0 0 0
0 0 0
0 0 0
0 0 0
0 0 0
0 0 0
0 0 0
0 0 0
0 0 0
0 0 0
0 0 0
0 0 0
0 0 0
0 0 0
0 0 0
0 0 0
0 0 0
0 0 0
0 0 0
0 0 0
0 0 0
0 0 0
0 0 0
0 0 0
0 0 0
0 0 0
0 0 0
0 0 0
0 0 0
0 0 0
0 0 0
0 0 0
0 0 0
0 0 0
0 0 0
0 0 0
0 0 0
0 0 0
0 0 0
0 0 0
0 0 0
0 0 0
0 0 0
0 0 0
5 0 0
0 0 0
0 0 0
0 0 0
0 0 0
0 0 0
0 0 0
0 0 0
0 0 0
0 0 0
0 0 0
0 0 0
0 0 0
0 0 0
0 0 0
0 0 0
0 0 0
0 0 0
0 0 0
0 0 0
0 0 0
0 0 0
0 0 0
0 0 0
0 0 0
0 0 0
0 0 0
0 0 0
0 0 0
0 0 0
0 0 0
0 0 0
0 0 0
0 0 0
0 0 0
0 0 0
0 0 0
0 0 0
0 0 0
0 0 0
0 0 0
0 0 0
0 0 0
0 0 0
0 0 0
0 0 0
0 0 0
0 0 0
0 0 0
0 0 0
5 0 0
0 0 0
0 0 0
0 0 0
0 0 0
0 0 0
0 0 0
0 0 0
0 0 0
0 0 0
0 0 0
0 0 0
0 0 0
0 0 0
0 0 0
0 0 0
0 0 0
0 0 0
0 0 0
0 0 0
0 0 0
0 0 0
0 0 0
0 0 0
0 0 0
0 0 0
0 0 0
0 0 0
0 0 0
0 0 0
0 0 0
0 0 0
0 0 0
0 0 0
0 0 0
0 0 0
0 0 0
0 0 0
0 0 0
0 0 0
0 0 0
0 0 0
0 0 0
0 0 0
0 0 0
0 0 0
0 0 0
0 0 0
0 0 0
0 0 0

VECTORS Contact_Forces float
0 0 0
0 0 0
0 0 0
0 0 0
0 0 0
0 0 0
0 0 0
0 0 0
0 0 0
0 0 0
0 0 0
0 0 0
0 0 0
0 0 0
0 0 0
0 0 0
0 0 0
0 0 0
0 0 0
0 0 0
0 0 0
0 0 0
0 0 0
0 0 0
0 0 0
0 0 0
0 0 0
0 0 0
0 0 0
0 0 0
0 0 0
0 0 0
0 0 0
0 0 0
0 0 0
0 0 0
0 0 0
0 0 0
0 0 0
0 0 0
0 0 0
0 0 0
0 0 0
0 0 0
0 0 0
0 0 0
0 0 0
0 0 0
0 0 0
0 0 0
0 0 0
0 0 0
0 0 0
0 0 0
0 0 0
0 0 0
0 0 0
0 0 0
0 0 0
0 0 0
0 0 0
0 0 0
0 0 0
0 0 0
0 0 0
0 0 0
0 0 0
0 0 0
0 0 0
0 0 0
0 0 0
0 0 0
0 0 0
0 0 0
0 0 0
0 0 0
0 0 0
0 0 0
0 0 0
0 0 0
0 0 0
0 0 0
0 0 0
0 0 0
0 0 0
0 0 0
0 0 0
0 0 0
0 0 0
0 0 0
0 0 0
0 0 0
0 0 0
0 0 0
0 0 0
0 0 0
0 0 0
0 0 0
0 0 0
0 0 0
0 0 0
0 0 0
0 0 0
0 0 0
0 0 0
0 0 0
0 0 0
0 0 0
0 0 0
0 0 0
0 0 0
0 0 0
0 0 0
0 0 0
0 0 0
0 0 0
0 0 0
0 0 0
0 0 0
0 0 0
0 0 0
0 0 0
0 0 0
0 0 0
0 0 0
0 0 0
0 0 0
0 0 0
0 0 0
0 0 0
0 0 0
0 0 0
0 0 0
0 0 0
0 0 0
0 0 0
0 0 0
0 0 0
0 0 0
0 0 0
0 0 0
0 0 0
0 0 0
0 0 0
0 0 0
0 0 0
0 0 0
0 0 0
0 0 0
0 0 0
0 0 0
0 0 0
0 0 0
0 0 0
0 0 0
0 0 0
0 0 0
0 0 0
0 0 0
0 0 0
0 0 0
0 0 0
0 0 0
0 0 0
0 0 0
0 0 0
0 0 0
0 0 0
0 0 0
0 0 0
0 0 0
0 0 0
0 0 0
0 0 0
0 0 0
0 0 0
0 0 0
0 0 0
0 0 0
0 0 0
0 0 0
0 0 0
0 0 0
0 0 0
0 0 0
0 0 0
0 0 0
0 0 0
0 0 0
0 0 0
0 0 0
0 0 0
0 0 0
0 0 0
0 0 0
0 0 0
0 0 0
0 0 0
0 0 0
0 0 0
0 0 0
0 0 0
0 0 0
0 0 0
0 0 0
0 0 0
0 0 0
0 0 0
0 0 0
0 0 0
0 0 0
0 0 0
0 0 0
0 0 0
0 0 0
0 0 0
0 0 0
0 0 0
0 0 0
0 0 0
0 0 0
0 0 0
0 0 0
0 0 0
0 0 0
0 0 0
0 0 0
0 0 0
0 0 0
0 0 0
0 0 0
0 0 0
0 0 0
0 0 0
0 0 0
0 0 0
0 0 0
0 0 0
0 0 0
0 0 0
0 0 0
0 0 0
0 0 0
0 0 0
0 0 0
0 0 0
0 0 0
0 0 0
0 0 0
0 0 0
0 0 0
0 0 0
0 0 0
0 0 0
0 0 0
0 0 0
0 0 0
0 0 0
0 0 0
0 0 0
0 0 0
0 0 0
0 0 0
0 0 0
0 0 0
0 0 0
0 0 0
0 0 0
0 0 0
0 0 0
0 0 0
0 0 0
0 0 0
0 0 0
0 0 0
0 0 0
0 0 0
0 0 0
0 0 0
0 0 0
0 0 0
0 0 0
0 0 0
0 0 0
0 0 0
0 0 0
0 0 0
0 0 0
0 0 0
0 0 0
0 0 0
0 0 0
0 0 0
0 0 0
0 0 0
0 0 0
0 0 0
0 0 0
0 0 0
0 0 0
0 0 0
0 0 0
0 0 0
0 0 0
0 0 0
0 0 0
0 0 0
0 0 0
0 0 0
0 0 0
0 0 0
0 0 0
0 0 0
0 0 0
0 0 0
0 0 0
0 0 0
0 0 0
0 0 0
0 0 0
0 0 0
0 0 0
0 0 0
0 0 0
0 0 0
0 0 0
0 0 0
0 0 0
0 0 0
0 0 0
0 0 0
0 0 0
0 0 0
0 0 0
0 0 0
0 0 0
0 0 0
0 0 0
0 0 0
0 0 0
0 0 0
0 0 0
0 0 0
0 0 0
0 0 0
0 0 0
0 0 0
0 0 0
0 0 0
0 0 0
0 0 0
0 0 0
0 0 0
0 0 0
0 0 0
0 0 0
0 0 0
0 0 0
0 0 0
0 0 0
0 0 0
0 0 0
0 0 0
0 0 0
0 0 0
0 0 0
0 0 0
0 0 0
0 0 0
0 0 0
0 0 0
0 0 0
0 0 0
0 0 0
0 0 0
0 0 0
0 0 0
0 0 0
0 0 0
0 0 0
0 0 0
0 0 0
0 0 0
0 0 0
0 0 0
0 0 0
0 0 0
0 0 0
0 0 0
0 0 0
0 0 0
0 0 0
0 0 0
0 0 0
0 0 0
0 0 0
0 0 0
0 0 0
0 0 0
0 0 0
0 0 0
0 0 0
0 0 0
0 0 0
0 0 0
0 0 0
0 0 0
0 0 0
0 0 0
0 0 0
0 0 0
0 0 0
0 0 0
0 0 0
0 0 0
0 0 0
0 0 0
0 0 0
0 0 0
0 0 0
0 0 0
0 0 0
0 0 0
0 0 0
0 0 0
0 0 0
0 0 0
0 0 0
0 0 0
0 0 0
0 0 0
0 0 0
0 0 0
0 0 0
0 0 0
0 0 0
0 0 0
0 0 0
0 0 0
0 0 0
0 0 0
0 0 0
0 0 0
0 0 0
0 0 0
0 0 0
0 0 0
0 0 0
0 0 0
0 0 0
0 0 0
0 0 0
0 0 0
0 0 0
0 0 0
0 0 0
0 0 0
0 0 0
0 0 0
0 0 0
0 0 0
0 0 0
0 0 0
0 0 0
0 0 0
0 0 0
0 0 0
0 0 0
0 0 0
0 0 0
0 0 0
0 0 0
0 0 0
0 0 0
0 0 0
0 0 0
0 0 0
0 0 0
0 0 0
0 0 0
0 0 0
0 0 0
0 0 0
0 0 0
0 0 0
0 0 0
0 0 0
0 0 0
0 0 0
0 0 0
0 0 0
0 0 0
0 0 0
0 0 0
0 0 0
0 0 0
0 0 0
0 0 0
0 0 0
0 0 0
0 0 0
0 0 0
0 0 0
0 0 0
0 0 0
0 0 0
0 0 0
0 0 0
0 0 0
0 0 0
0 0 0
0 0 0
0 0 0
0 0 0
0 0 0
0 0 0
0 0 0
0 0 0
0 0 0
0 0 0
0 0 0
0 0 0
0 0 0
0 0 0
0 0 0
0 0 0
0 0 0
0 0 0
0 0 0
0 0 0
0 0 0
0 0 0
0 0 0
0 0 0
0 0 0
0 0 0
0 0 0
0 0 0
0 0 0
0 0 0
0 0 0
0 0 0
0 0 0
0 0 0
0 0 0
0 0 0
0 0 0
0 0 0
0 0 0
0 0 0
0 0 0
0 0 0
0 0 0
0 0 0
0 0 0
0 0 0
0 0 0
0 0 0
0 0 0
0 0 0
0 0 0
0 0 0
0 0 0
0 0 0
0 0 0
0 0 0
0 0 0
0 0 0
0 0 0
0 0 0
0 0 0
0 0 0
0 0 0
0 0 0
0 0 0
0 0 0
0 0 0
0 0 0
0 0 0
0 0 0
0 0 0
0 0 0
0 0 0
0 0 0
0 0 0
0 0 0
0 0 0
0 0 0
0 0 0
0 0 0
0 0 0
0 0 0
0 0 0
0 0 0
0 0 0
0 0 0
0 0 0
0 0 0
0 0 0
0 0 0
0 0 0
0 0 0
0 0 0
0 0 0
0 0 0
0 0 0
0 0 0
0 0 0
0 0 0
0 0 0
0 0 0
0 0 0
0 0 0
0 0 0
0 0 0
0 0 0
0 0 0
0 0 0
0 0 0
0 0 0
0 0 0
0 0 0
0 0 0
0 0 0
0 0 0
0 0 0
0 0 0
0 0 0
0 0 0
0 0 0
0 0 0
0 0 0
0 0 0
0 0 0
0 0 0
0 0 0
0 0 0
0 0 0
0 0 0
0 0 0
0 0 0
0 0 0
0 0 0
0 0 0
0 0 0
0 0 0
0 0 0
0 0 0
0 0 0
0 0 0
0 0 0
0 0 0
0 0 0
0 0 0
0 0 0
0 0 0
0 0 0
0 0 0
0 0 0
0 0 0
0 0 0
0 0 0
0 0 0
0 0 0
0 0 0
0 0 0
0 0 0
0 0 0
0 0 0
0 0 0
0 0 0
0 0 0
0 0 0
0 0 0
0 0 0
0 0 0
0 0 0
0 0 0
0 0 0
0 0 0
0 0 0
0 0 0
0 0 0
0 0 0
0 0 0
0 0 0
0 0 0
0 0 0
0 0 0
0 0 0
0 0 0
0 0 0
0 0 0
0 0 0
0 0 0
0 0 0
0 0 0
0 0 0
0 0 0
0 0 0
0 0 0
0 0 0
0 0 0
0 0 0
0 0 0
0 0 0
0 0 0
0 0 0
0 0 0
0 0 0
0 0 0
0 0 0
0 0 0
0 0 0
0 0 0
0 0 0
0 0 0
0 0 0
0 0 0
0 0 0
0 0 0
0 0 0
0 0 0
0 0 0
0 0 0
0 0 0
0 0 0
0 0 0
0 0 0
0 0 0
0 0 0
0 0 0
0 0 0
0 0 0
0 0 0
0 0 0
0 0 0
0 0 0
0 0 0
0 0 0
0 0 0
0 0 0
0 0 0
0 0 0
0 0 0
0 0 0
0 0 0
0 0 0
0 0 0
0 0 0
0 0 0
0 0 0
0 0 0
0 0 0
0 0 0
0 0 0
0 0 0
0 0 0
0 0 0
0 0 0
0 0 0
0 0 0
0 0 0
0 0 0
0 0 0
0 0 0
0 0 0
0 0 0
0 0 0
0 0 0
0 0 0
0 0 0
0 0 0
0 0 0
0 0 0
0 0 0
0 0 0
0 0 0
0 0 0
0 0 0
0 0 0
0 0 0
0 0 0
0 0 0
0 0 0
0 0 0
0 0 0
0 0 0
0 0 0
0 0 0
0 0 0
0 0 0
0 0 0
0 0 0
0 0 0
0 0 0
0 0 0
0 0 0
0 0 0
0 0 0
0 0 0
0 0 0
0 0 0
0 0 0
0 0 0
0 0 0
0 0 0
0 0 0
0 0 0
0 0 0
0 0 0
0 0 0
0 0 0
0 0 0
0 0 0
0 0 0
0 0 0
0 0 0
0 0 0
0 0 0
0 0 0
0 0 0
0 0 0
0 0 0
0 0 0
0 0 0
0 0 0
0 0 0
0 0 0
0 0 0
0 0 0
0 0 0
0 0 0
0 0 0
0 0 0
0 0 0
0 0 0
0 0 0
0 0 0
0 0 0
0 0 0
0 0 0
0 0 0
0 0 0
0 0 0
0 0 0
0 0 0
0 0 0
0 0 0
0 0 0

CELL_DATA 768
SCALARS ELEMENT_ID int 1
LOOKUP_TABLE default
1
2
3
4
5
6
7
8
9
10
11
12
49
50
51
52
53
54
55
56
57
58
59
60
97
98
99
100
101
102
103
104
105
106
107
108
145
146
147
148
149
150
151
152
153
154
155
156
13
14
15
16
17
18
19
20
21
22
23
61
62
63
64
65
66
67
68
69
70
71
109
110
111
112
113
114
115
116
117
118
119
157
158
159
160
161
162
163
164
165
166
167
37
38
39
40
41
42
43
44
45
46
47
48
85
86
87
88
89
90
91
92
93
94
95
96
133
134
135
136
137
138
139
140
141
142
143
144
181
182
183
184
185
186
187
188
189
190
191
192
24
25
26
27
28
29
30
31
32
33
34
35
36
72
73
74
75
76
77
78
79
80
81
82
83
84
120
121
122
123
124
125
126
127
128
129
130
131
132
168
169
170
171
172
173
174
175
176
177
178
179
180
193
194
195
196
197
198
199
200
201
202
203
204
241
242
243
244
245
246
247
248
249
250
251
252
289
290
291
292
293
294
295
296
297
298
299
300
337
338
339
340
341
342
343
344
345
346
347
348
385
386
387
388
389
390
391
392
393
394
395
396
433
434
435
436
437
438
439
440
441
442
443
444
481
482
483
484
485
486
487
488
489
490
491
492
529
530
531
532
533
534
535
536
537
538
539
540
205
206
207
208
209
210
211
212
213
214
215
253
254
255
256
257
258
259
260
261
262
263
301
302
303
304
305
306
307
308
309
310
311
312
349
350
351
352
353
354
355
356
357
358
359
360
397
398
399
400
401
402
403
404
405
406
407
408
445
446
447
448
449
450
451
452
453
454
455
456
493
494
495
496
497
498
499
500
501
502
503
504
541
542
543
544
545
546
547
548
549
550
551
552
229
230
231
232
233
234
235
236
237
238
239
240
277
278
279
280
281
282
283
284
285
286
287
288
325
326
327
328
329
330
331
332
333
334
335
336
373
374
375
376
377
378
379
380
381
382
383
384
421
422
423
424
425
426
427
428
429
430
431
432
469
470
471
472
473
474
475
476
477
478
479
480
517
518
519
520
521
522
523
524
525
526
527
528
565
566
567
568
569
570
571
572
573
574
575
576
216
217
218
219
220
221
222
223
224
225
226
227
228
264
265
266
267
268
269
270
271
272
273
274
275
276
313
314
315
316
317
318
319
320
321
322
323
324
361
362
363
364
365
366
367
368
369
370
371
372
409
410
411
412
413
414
415
416
417
418
419
420
457
458
459
460
461
462
463
464
465
466
467
468
505
506
507
508
509
510
511
512
513
514
515
516
553
554
555
556
557
558
559
560
561
562
563
564
577
578
579
580
581
582
583
584
585
586
587
588
625
626
627
628
629
630
631
632
633
634
635
636
673
674
675
676
677
678
679
680
681
682
683
684
721
722
723
724
725
726
727
728
729
730
731
732
589
590
591
592
593
594
595
596
597
598
599
600
601
637
638
639
640
641
642
643
644
645
646
647
648
649
685
686
687
688
689
690
691
692
693
694
695
696
697
733
734
735
736
737
738
739
740
741
742
743
744
745
613
614
615
616
617
618
619
620
621
622
623
624
661
662
663
664
665
666
667
668
669
670
671
672
709
710
711
712
713
714
715
716
717
718
719
720
757
758
759
760
761
762
763
764
765
766
767
768
602
603
604
605
606
607
608
609
610
611
612
650
651
652
653
654
655
656
657
658
659
660
698
699
700
701
702
703
704
705
706
707
708
746
747
748
749
750
751
752
753
754
755
756

SCALARS PART_ID int 1
LOOKUP_TABLE default
1
1
1
1
1
1
1
1
1
1
1
1
1
1
1
1
1
1
1
1
1
1
1
1
1
1
1
1
1
1
1
1
1
1
1
1
1
1
1
1
1
1
1
1
1
1
1
1
1
1
1
1
1
1
1
1
1
1
1
1
1
1
1
1
1
1
1
1
1
1
1
1
1
1
1
1
1
1
1
1
1
1
1
1
1
1
1
1
1
1
1
1
1
1
1
1
1
1
1
1
1
1
1
1
1
1
1
1
1
1
1
1
1
1
1
1
1
1
1
1
1
1
1
1
1
1
1
1
1
1
1
1
1
1
1
1
1
1
1
1
1
1
1
1
1
1
1
1
1
1
1
1
1
1
1
1
1
1
1
1
1
1
1
1
1
1
1
1
1
1
1
1
1
1
1
1
1
1
1
1
1
1
1
1
1
1
1
1
1
1
1
1
2
2
2
2
2
2
2
2
2
2
2
2
2
2
2
2
2
2
2
2
2
2
2
2
2
2
2
2
2
2
2
2
2
2
2
2
2
2
2
2
2
2
2
2
2
2
2
2
2
2
2
2
2
2
2
2
2
2
2
2
2
2
2
2
2
2
2
2
2
2
2
2
2
2
2
2
2
2
2
2
2
2
2
2
2
2
2
2
2
2
2
2
2
2
2
2
2
2
2
2
2
2
2
2
2
2
2
2
2
2
2
2
2
2
2
2
2
2
2
2
2
2
2
2
2
2
2
2
2
2
2
2
2
2
2
2
2
2
2
2
2
2
2
2
2
2
2
2
2
2
2
2
2
2
2
2
2
2
2
2
2
2
2
2
2
2
2
2
2
2
2
2
2
2
2
2
2
2
2
2
2
2
2
2
2
2
2
2
2
2
2
2
2
2
2
2
2
2
2
2
2
2
2
2
2
2
2
2
2
2
2
2
2
2
2
2
2
2
2
2
2
2
2
2
2
2
2
2
2
2
2
2
2
2
2
2
2
2
2
2
2
2
2
2
2
2
2
2
2
2
2
2
2
2
2
2
2
2
2
2
2
2
2
2
2
2
2
2
2
2
2
2
2
2
2
2
2
2
2
2
2
2
2
2
2
2
2
2
2
2
2
2
2
2
2
2
2
2
2
2
2
2
2
2
2
2
2
2
2
2
2
2
2
2
2
2
2
2
2
2
2
2
2
2
2
2
2
2
2
2
2
2
2
2
2
2
2
2
2
2
2
2
2
2
2
2
2
2
2
2
2
2
2
2
2
2
2
2
2
2
2
2
2
2
2
2
2
2
2
2
2
2
2
2
2
2
2
2
2
2
2
2
2
2
3
3
3
3
3
3
3
3
3
3
3
3
3
3
3
3
3
3
3
3
3
3
3
3
3
3
3
3
3
3
3
3
3
3
3
3
3
3
3
3
3
3
3
3
3
3
3
3
3
3
3
3
3
3
3
3
3
3
3
3
3
3
3
3
3
3
3
3
3
3
3
3
3
3
3
3
3
3
3
3
3
3
3
3
3
3
3
3
3
3
3
3
3
3
3
3
3
3
3
3
3
3
3
3
3
3
3
3
3
3
3
3
3
3
3
3
3
3
3
3
3
3
3
3
3
3
3
3
3
3
3
3
3
3
3
3
3
3
3
3
3
3
3
3
3
3
3
3
3
3
3
3
3
3
3
3
3
3
3
3
3
3
3
3
3
3
3
3
3
3
3
3
3
3
3
3
3
3
3
3
3
3
3
3
3
3
3
3
3
3
3
3

SCALARS EROSION_STATUS int 1
LOOKUP_TABLE default
1
1
1
1
1
1
1
1
1
1
1
1
1
1
1
1
1
1
1
1
1
1
1
1
1
1
1
1
1
1
1
1
1
1
1
1
1
1
1
1
1
1
1
1
1
1
1
1
1
1
1
1
1
1
1
1
1
1
1
1
1
1
1
1
1
1
1
1
1
1
1
1
1
1
1
1
1
1
1
1
1
1
1
1
1
1
1
1
1
1
1
1
1
1
1
1
1
1
1
1
1
1
1
1
1
1
1
1
1
1
1
1
1
1
1
1
1
1
1
1
1
1
1
1
1
1
1
1
1
1
1
1
1
1
1
1
1
1
1
1
1
1
1
1
1
1
1
1
1
1
1
1
1
1
1
1
1
1
1
1
1
1
1
1
1
1
1
1
1
1
1
1
1
1
1
1
1
1
1
1
1
1
1
1
1
1
1
1
1
1
1
1
1
1
1
1
1
1
1
1
1
1
1
1
1
1
1
1
1
1
1
1
1
1
1
1
1
1
1
1
1
1
1
1
1
1
1
1
1
1
1
1
1
1
1
1
1
1
1
1
1
1
1
1
1
1
1
1
1
1
1
1
1
1
1
1
1
1
1
1
1
1
1
1
1
1
1
1
1
1
1
1
1
1
1
1
1
1
1
1
1
1
1
1
1
1
1
1
1
1
1
1
1
1
1
1
1
1
1
1
1
1
1
1
1
1
1
1
1
1
1
1
1
1
1
1
1
1
1
1
1
1
1
1
1
1
1
1
1
1
1
1
1
1
1
1
1
1
1
1
1
1
1
1
1
1
1
1
1
1
1
1
1
1
1
1
1
1
1
1
1
1
1
1
1
1
1
1
1
1
1
1
1
1
1
1
1
1
1
1
1
1
1
1
1
1
1
1
1
1
1
1
1
1
1
1
1
1
1
1
1
1
1
1
1
1
1
1
1
1
1
1
1
1
1
1
1
1
1
1
1
1
1
1
1
1
1
1
1
1
1
1
1
1
1
1
1
1
1
1
1
1
1
1
1
1
1
1
1
1
1
1
1
1
1
1
1
1
1
1
1
1
1
1
1
1
1
1
1
1
1
1
1
1
1
1
1
1
1
1
1
1
1
1
1
1
1
1
1
1
1
1
1
1
1
1
1
1
1
1
1
1
1
1
1
1
1
1
1
1
1
1
1
1
1
1
1
1
1
1
1
1
1
1
1
1
1
1
1
1
1
1
1
1
1
1
1
1
1
1
1
1
1
1
1
1
1
1
1
1
1
1
1
1
1
1
1
1
1
1
1
1
1
1
1
1
1
1
1
1
1
1
1
1
1
1
1
1
1
1
1
1
1
1
1
1
1
1
1
1
1
1
1
1
1
1
1
1
1
1
1
1
1
1
1
1
1
1
1
1
1
1
1
1
1
1
1
1
1
1
1
1
1
1
1
1
1
1
1
1
1
1
1
1
1
1
1
1
1
1
1
1
1
1
1
1
1
1
1
1
1
1
1
1
1
1
1
1
1
1
1
1
1
1
1
1
1
1
1
1
1
1
1
1
1
1
1
1
1
1
1
1
1
1
1
1
1
1
1
1
1
1
1
1
1
1
1
1
1
1
1
1
1
1
1
1
1
1
1
1
1
1
1
1
1
1
1
1
1
1
1
1
1
1
1
1
1
1
1
1
1
1
1
1
1
1
1
1
1
1
1
1
1
1
1
1
1
1
1
1
1
1
1
1
1
1
1
1
1
1
1
1
1
1
1
1
1
1

SCALARS 2DELEM_Plastic_Strain float 1
LOOKUP_TABLE default
0
0
0
0
0
0
0
0
0
0
0
0
0
0
0
0
0
0
0
0
0
0
0
0
0
0
0
0
0
0
0
0
0
0
0
0
0
0
0
0
0
0
0
0
0
0
0
0
0
0
0
0
0
0
0
0
0
0
0
0
0
0
0
0
0
0
0
0
0
0
0
0