# vtk DataFile Version 3.0
vtk output
ASCII
DATASET UNSTRUCTURED_GRID
FIELD FieldData 2
TIME 1 1 double
8.001
CYCLE 1 1 int
0
POINTS 979 float
25.3994 0.000487488 -4.71497e-05
25.3995 3.17442 0.000872131
25.4006 6.34995 -3.95203e-05
25.3996 9.52461 0.000742798
25.4009 12.6993 0.000120941
25.4009 15.8754 -0.000665344
25.3997 19.0497 -0.000296234
25.2669 0.000477142 3.11439
25.2712 3.17893 3.11285
25.2828 6.36059 3.11268
25.306 9.54229 3.1071
25.3458 12.7283 3.09321
25.4182 15.922 3.06318
25.4915 19.1337 2.98625
25.4566 -0.000367554 6.17396
25.4507 3.18261 6.17264
25.4362 6.36858 6.16785
25.4142 9.5628 6.15888
25.4164 12.7698 6.13711
25.4722 15.9877 6.08607
25.5723 19.213 6.00888
26.4421 -5.58777e-05 9.08074
26.418 3.19405 9.07793
26.3525 6.3907 9.07234
26.2254 9.59116 9.06464
26.0103 12.807 9.068
25.7404 16.0414 9.06265
25.6507 19.2936 8.97673
27.7365 0.000678284 11.8623
27.7055 3.21954 11.8608
27.6031 6.44057 11.8554
27.4119 9.6663 11.853
27.0098 12.8878 11.8835
26.2738 16.0897 11.9458
25.7663 19.3761 11.8891
28.5745 0.000727997 14.748
28.5316 3.23765 14.7439
28.4019 6.47932 14.7409
28.1375 9.71581 14.7407
27.633 12.9464 14.7458
26.5988 16.1099 14.7695
25.8179 19.3578 14.7864
28.4599 -0.000628906 17.7441
28.4275 3.23546 17.7396
28.2971 6.47332 17.7314
28.028 9.70806 17.7155
27.4868 12.9249 17.686
26.5391 16.0685 17.6403
25.7729 19.2648 17.6714
27.7674 -0.000940765 20.7031
27.7306 3.22277 20.6988
27.6259 6.44379 20.6891
27.3939 9.66243 20.6738
26.9457 12.8629 20.6392
26.3027 16.032 20.6042
25.7169 19.219 20.5999
27.0152 0.00036322 23.6644
26.9959 3.21073 23.6634
26.9091 6.4199 23.6581
26.751 9.62782 23.6458
26.4668 12.8304 23.6311
26.0787 16.0285 23.6172
25.6637 19.2188 23.6096
26.356 -0.000300446 26.6544
26.3377 3.20277 26.6559
26.3078 6.40747 26.6584
26.2324 9.61432 26.6552
26.1307 12.8207 26.6518
25.9343 16.0277 26.6534
25.6143 19.2219 26.6609
26.0133 0.000963257 29.6959
26.0223 3.20069 29.6937
26.0194 6.40297 29.6948
26.0297 9.60702 29.6974
25.996 12.8132 29.6992
25.8733 16.0188 29.7074
25.5652 19.2107 29.7213
26.1408 0.000691925 32.7528
26.1379 3.20085 32.7516
26.1583 6.4033 32.7498
26.1477 9.60362 32.7478
26.1015 12.8089 32.7537
25.9199 16.0079 32.7652
25.5221 19.1931 32.7794
26.502 0.000886047 35.8036
26.5161 3.202 35.8025
26.5055 6.4051 35.801
26.4764 9.60602 35.8016
26.3558 12.8059 35.8077
26.0499 15.9977 35.8131
25.4839 19.1558 35.8319
26.9349 0.000110565 38.8516
26.9154 3.20241 38.8502
26.9016 6.40456 38.8505
26.84 9.60826 38.8495
26.6678 12.8078 38.8512
26.2093 15.9799 38.8483
25.4625 19.1158 38.8668
27.2849 2.68555e-06 41.906
27.2884 3.20458 41.9059
27.2455 6.41069 41.9023
27.1716 9.61478 41.9011
26.9278 12.8123 41.8902
26.3554 15.9761 41.8769
25.4629 19.0655 41.869
27.5154 0.000810944 44.9701
27.4947 3.20917 44.9662
27.4597 6.4173 44.9672
27.3479 9.6251 44.9587
27.0616 12.8274 44.939
26.431 15.9775 44.8942
25.4976 19.0754 44.84
27.3388 9.05151e-05 48.0083
27.3452 3.21191 48.009
27.3091 6.42036 48.0082
27.2244 9.63482 48.0095
26.9257 12.8409 47.98
26.3744 16.014 47.9174
25.5667 19.12 47.8047
26.6293 -0.000820221 50.9841
26.6293 3.20611 50.9886
26.6532 6.41581 50.9962
26.6187 9.62388 50.9972
26.4449 12.8376 50.9832
26.0856 16.0406 50.9321
25.5814 19.2333 50.8289
25.4177 0.00058313 53.8094
25.4412 3.20527 53.8158
25.4667 6.40719 53.8337
25.525 9.6129 53.8554
25.4809 12.8166 53.8441
25.4671 16.0353 53.8608
25.4626 19.2796 53.9129
23.9185 -0.00011496 56.4865
23.9306 3.20432 56.4985
23.9992 6.40906 56.5243
24.072 9.6114 56.5603
24.1479 12.8159 56.5778
24.4604 15.9886 56.6779
25.0811 19.1863 56.9942
22.2349 0.000320374 59.0619
22.2807 3.20782 59.0795
22.3541 6.41331 59.1233
22.5053 9.61668 59.1856
22.6371 12.8186 59.2322
23.2126 15.9664 59.4289
24.3897 18.9342 60.0003
20.4327 0.000625946 61.5339
20.4651 3.21817 61.564
20.611 6.42604 61.6377
20.7987 9.63766 61.7423
21.0765 12.8415 61.8315
21.8312 15.9513 62.1038
23.4413 18.7314 62.8607
18.5482 -0.00070166 63.9586
18.6145 3.2319 63.9924
18.7768 6.45844 64.1043
19.0932 9.67828 64.2619
19.457 12.8969 64.416
20.3246 16.0153 64.6409
22.3352 18.5504 65.4744
16.8818 0.000882965 66.5013
16.8982 3.23606 66.5287
17.0518 6.50766 66.6017
17.3711 9.76469 66.7813
17.9884 13.0372 67.0407
18.9788 16.2166 67.2407
21.3513 18.5804 67.7162
16.8215 0.000419373 69.5612
16.8708 3.21305 69.5223
16.7904 6.42715 69.5854
16.8623 9.76156 69.6874
17.5117 13.1564 69.8803
18.7169 16.3657 70.2539
21.4271 18.642 69.7436
19.2188 0.000667816 71.474
19.188 3.20531 71.5239
19.1881 6.41598 71.3825
19.2027 9.56864 71.5204
19.3603 12.6315 72.0649
20.0923 15.8645 72.6677
22.8818 18.856 71.2844
22.2378 -0.000757935 70.931
22.2162 3.21997 70.8263
22.177 6.40794 70.7638
22.1131 9.5669 70.6247
22.3343 12.6612 71.3533
22.7148 15.3976 72.7132
24.9365 18.8039 72.9681
24.7806 -0.000726532 69.1652
24.8118 3.21706 69.1762
24.7045 6.39729 68.9611
24.7791 9.63124 69.1665
24.7416 12.8092 69.4301
25.508 15.6149 71.103
25.4725 17.441 74.7462
27.6248 -0.000268738 67.9594
27.5732 3.20218 67.8361
27.5143 6.44085 67.605
27.3184 9.64188 67.4593
27.7458 12.807 68.5153
27.722 14.6203 71.7661
25.4162 14.6959 74.7391
30.5278 2.41394e-05 66.9704
30.5323 3.21898 67.0161
30.4485 6.38581 66.6569
30.4561 9.6408 66.5339
30.1301 12.3148 68.8377
28.5135 12.3576 72.5347
25.4239 11.6245 73.9942
33.529 8.05664e-06 67.5512
33.5545 3.20201 67.4868
33.625 6.37291 67.2651
33.2881 9.44998 67.7269
30.9426 10.1223 70.1755
27.9382 9.43168 71.0247
25.4614 9.13227 72.9411
35.5771 -0.000974701 69.7909
35.767 3.19474 69.673
36.0603 6.32813 69.4555
34.8208 9.05939 70.226
31.6615 8.22219 71.3674
28.8215 6.56935 71.7513
25.7316 6.50247 72.4372
36.7494 9.97925e-05 72.6017
36.767 3.214 72.6036
37.3067 6.34999 72.5215
35.5551 8.90988 72.8192
32.2159 8.37731 73.5182
29.4239 6.98939 74.8213
25.9735 6.91095 74.7282
36.7566 -8.63342e-05 75.651
36.95 3.21008 75.6755
36.9262 6.41562 75.7787
35.8595 9.38665 75.507
32.4978 10.5008 75.1003
29.2999 9.23827 76.4093
25.929 9.07752 75.8548
35.5775 -0.000309937 78.4227
35.4673 3.21438 78.4191
35.5627 6.42683 78.6025
35.067 9.65065 78.4079
32.9691 12.1544 77.2705
29.2073 12.0618 76.5271
25.8517 11.4119 75.9985
32.6334 0.000607208 79.5707
32.714 3.18422 79.6077
32.6308 6.34257 79.8318
32.6501 9.50587 80.3621
32.2964 12.9238 79.4568
29.5184 14.5856 76.8482
25.8266 14.0971 75.5727
29.6841 -0.000131287 78.9791
29.6202 3.19921 78.9461
29.7103 6.41448 79.1144
29.5793 9.56151 79.3433
29.475 12.6525 80.2756
28.9862 15.8094 78.3077
26.2621 16.9805 75.5518
26.6904 5.51453e-05 77.9746
26.7223 3.1894 78.1238
26.7323 6.37587 78.0043
26.8014 9.61134 78.0102
26.5793 12.6535 78.4372
26.5344 15.8429 79.4669
26.1114 18.9481 77.1133
23.6617 0.000881836 77.6028
23.6398 3.19438 77.5646
23.6751 6.40169 77.8495
23.6576 9.56814 77.7552
23.7309 12.7807 77.4388
23.7209 15.8479 77.9689
24.3595 19.2057 79.0064
20.5332 0.000987946 77.6808
20.5694 3.20844 77.7994
20.5948 6.40711 78.0021
20.6501 9.63611 78.0417
20.6071 12.8118 77.6859
20.8566 16.0902 77.7274
21.5487 18.7843 79.2674
17.4943 -0.000118225 78.2013
17.4924 3.22358 78.234
17.544 6.45258 78.3262
17.5875 9.67707 78.4209
17.6724 12.9614 78.4193
17.926 16.1922 78.4877
18.6688 18.812 80.3534
14.4486 0.000667328 78.7277
14.4741 3.23929 78.7658
14.4965 6.49171 78.8296
14.6017 9.76008 78.9945
14.7544 13.0979 79.2132
14.9672 16.4313 79.4563
15.9996 19.2298 81.0346
12.3039 0.000677124 80.9127
12.3101 3.22707 80.9167
12.3368 6.46689 80.9396
12.3234 9.74747 81.019
12.6187 13.1029 81.1338
12.7634 16.4067 81.6317
13.5015 19.6639 82.2953
13.3728 -0.000363739 83.7613
13.3466 3.21475 83.782
13.3806 6.43416 83.7801
13.3397 9.63715 83.8652
13.5305 12.8522 83.8599
13.8734 16.0497 84.4458
14.8487 19.3854 84.3581
16.4247 -0.000517273 83.7775
16.4451 3.21815 83.7652
16.3983 6.44171 83.6685
16.4202 9.668 83.5342
16.2915 12.7906 83.1683
16.9057 15.8352 83.6709
16.7445 19.3869 83.3021
18.8877 0.000468964 81.8858
18.8406 3.2062 81.8388
18.8028 6.4108 81.7157
18.6791 9.60347 81.4985
18.4886 12.8426 80.9978
18.5045 16.1153 81.5988
18.9056 19.701 81.3333
21.3691 0.000669678 80.081
21.3949 3.19797 80.0801
21.2918 6.39172 79.921
21.2494 9.59546 79.7873
20.998 12.8344 79.4438
20.7505 16.2305 79.2368
21.3665 19.8939 80.6284
24.2025 0.000520905 78.8077
24.1679 3.20155 78.7892
24.1881 6.40362 78.7904
24.0849 9.60788 78.7058
23.8831 12.8284 78.4959
23.7831 16.2021 79.0302
23.3868 19.2182 80.9918
27.2361 0.00051532 79.2176
27.2542 3.20204 79.2247
27.2016 6.39539 79.2148
27.1453 9.59415 79.2246
26.6442 12.8226 79.595
25.4936 15.5832 81.1179
23.9337 17.5842 83.0655
29.5952 0.000678803 81.2344
29.5874 3.19899 81.2004
29.6455 6.39811 81.1433
29.442 9.56915 81.194
28.3688 12.4658 81.9923
26.2532 14.462 83.5271
23.6801 15.6137 85.1091
31.4994 0.000953247 83.6294
31.5492 3.21031 83.6072
31.5218 6.40942 83.5874
31.3016 9.59215 83.6861
29.938 12.3562 84.403
27.1675 13.3546 85.829
24.0592 13.6417 87.2081
33.1128 0.000110626 86.2573
33.0636 3.21947 86.2776
33.0509 6.42894 86.3073
32.8483 9.64021 86.3535
31.3662 12.5264 86.844
28.2736 12.4344 88.0607
24.9841 11.9436 89.057
33.8714 -0.000676697 89.2453
33.8822 3.21323 89.2435
33.7583 6.47587 89.2951
33.5583 9.67556 89.3837
32.6143 12.7939 89.4169
29.1075 11.8438 90.0086
26.0216 10.9037 90.6811
33.3013 -0.000984406 92.2447
33.2331 3.2112 92.2433
33.2239 6.39434 92.3125
32.9979 9.63725 92.4083
32.6668 12.8421 92.4204
29.1959 13.8321 91.5189
25.9708 12.1593 91.9141
30.9954 0.000121582 94.3073
31.0122 3.15181 94.3812
30.9962 6.32259 94.4741
30.98 9.48377 94.6323
30.9192 12.6579 95.0081
29.3594 15.329 93.3185
25.6977 15.0079 91.5258
27.8913 -0.000625824 94.2188
27.9319 3.16716 94.2475
27.9071 6.28902 94.4961
27.9106 9.45507 94.907
27.869 12.5186 95.6455
27.735 15.6638 94.8938
25.8697 17.7851 92.0341
25.0738 0.000750427 93.0232
25.0052 3.18414 93.1351
25.0429 6.38553 93.4276
24.9184 9.49095 94.1435
24.776 12.5922 94.7692
25.0494 15.7428 95.3516
25.0212 18.5805 93.3672
22.0522 -0.00030191 92.1441
22.1578 3.24009 92.2343
22.021 6.42589 92.6846
21.9764 9.54151 93.4566
[...]
POINT_DATA 979
SCALARS NODE_ID int 1
LOOKUP_TABLE default
1
2
3
4
5
6
7
8
9
10
11
12
13
14
15
16
17
18
19
20
21
22
23
24
25
26
27
28
29
30
31
32
33
34
35
36
37
38
39
40
41
42
43
44
45
46
47
48
49
50
51
52
53
54
55
56
57
58
59
60
61
62
63
64
65
66
67
68
69
70
71
72
73
74
75
76
77
78
79
80
81
82
83
84
85
86
87
88
89
90
91
92
93
94
95
96
97
98
99
100
101
102
103
104
105
106
107
108
109
110
111
112
113
114
115
116
117
118
119
120
121
122
123
124
125
126
127
128
129
130
131
132
133
134
135
136
137
138
139
140
141
142
143
144
145
146
147
148
149
150
151
152
153
154
155
156
157
158
159
160
161
162
163
164
165
166
167
168
169
170
171
172
173
174
175
176
177
178
179
180
181
182
183
184
185
186
187
188
189
190
191
192
193
194
195
196
197
198
199
200
201
202
203
204
205
206
207
208
209
210
211
212
213
214
215
216
217
218
219
220
221
222
223
224
225
226
227
228
229
230
231
232
233
234
235
236
237
238
239
240
241
242
243
244
245
246
247
248
249
250
251
252
253
254
255
256
257
258
259
260
261
262
263
264
265
266
267
268
269
270
271
272
273
274
275
276
277
278
279
280
281
282
283
284
285
286
287
288
289
290
291
292
293
294
295
296
297
298
299
300
301
302
303
304
305
306
307
308
309
310
311
312
313
314
315
316
317
318
319
320
321
322
323
324
325
326
327
328
329
330
331
332
333
334
335
336
337
338
339
340
341
342
343
344
345
346
347
348
349
350
351
352
353
354
355
356
357
358
359
360
361
362
363
364
365
366
367
368
369
370
371
372
373
374
375
376
377
378
379
380
381
382
383
384
385
386
387
388
389
390
391
392
393
394
395
396
397
398
399
400
401
402
403
404
405
406
407
408
409
410
411
412
413
414
415
416
417
418
419
420
421
422
423
424
425
426
427
428
429
430
431
432
433
434
435
436
437
438
439
440
441
442
443
444
445
446
447
448
449
450
451
452
453
454
455
456
457
458
459
460
461
462
463
464
465
466
467
468
469
470
471
472
473
474
475
476
477
478
479
480
481
482
483
484
485
486
487
488
489
490
491
492
493
494
495
496
497
498
499
500
501
502
503
504
505
506
507
508
509
510
511
512
513
514
515
516
517
518
519
520
521
522
523
524
525
526
527
528
529
530
531
532
533
534
535
536
537
538
539
540
541
542
543
544
545
546
547
548
549
550
551
552
553
554
555
556
557
558
559
560
561
562
563
564
565
566
567
568
569
570
571
572
573
574
575
576
577
578
579
580
581
582
583
584
585
586
587
588
589
590
591
592
593
594
595
596
597
598
599
600
601
602
603
604
605
606
607
608
609
610
611
612
613
614
615
616
617
618
619
620
621
622
623
624
625
626
627
628
629
630
631
632
633
634
635
636
637
638
639
640
641
642
643
644
645
646
647
648
649
650
651
652
653
654
655
656
657
658
659
660
661
662
663
664
665
666
667
668
669
670
671
672
673
674
675
676
677
678
679
680
681
682
683
684
685
686
687
688
689
690
691
692
693
694
695
696
697
698
699
700
701
702
703
704
705
706
707
708
709
710
711
712
713
714
715
716
717
718
719
720
721
722
723
724
725
726
727
728
729
730
731
732
733
734
735
736
737
738
739
740
741
742
743
744
745
746
747
748
749
750
751
752
753
754
755
756
757
758
759
760
761
762
763
764
765
766
767
768
769
770
771
772
773
774
775
776
777
778
779
780
781
782
783
784
785
786
787
788
789
790
791
792
793
794
795
796
797
798
799
800
801
802
803
804
805
806
807
808
809
810
811
812
813
814
815
816
817
818
819
820
821
822
823
824
825
826
827
828
829
830
831
832
833
834
835
836
837
838
839
840
841
842
843
844
845
846
847
848
849
850
851
852
853
854
855
856
857
858
859
860
861
862
863
864
865
866
867
868
869
870
871
872
873
874
875
876
877
878
879
880
881
882
883
884
885
886
887
888
889
890
891
892
893
894
895
896
897
898
899
900
901
902
903
904
905
906
907
908
909
910
911
912
913
914
915
916
917
918
919
920
921
922
923
924
925
926
927
928
929
930
931
932
933
934
935
936
937
938
939
940
941
942
943
944
945
946
947
948
949
950
951
952
953
954
955
956
957
958
959
960
961
962
963
964
965
966
967
968
969
970
971
972
973
974
975
987
988
989
990

SCALARS Mass_Change float 1
LOOKUP_TABLE default
0
0
0
0
0
0
0
0
0
0
0
0
0
0
0
0
0
0
0
0
0
0
0
0
0
0
0
0
0
0
0
0
0
0
0
0
0
0
0
0
0
0
0
0
0
0
0
0
0
0
0
0
0
0
0
0
0
0
0
0
0
0
0
0
0
0
0
0
0
0
0
0
0
0
0
0
0
0
0
0
0
0
0
0
0
0
0
0
0
0
0
0
0
0
0
0
0
0
0
0
0
0
0
0
0
0
0
0
0
0
0
0
0
0
0
0
0
0
0
0
0
0
0
0
0
0
0
0
0
0
0
0
0
0
0
0
0
0
0
0
0
0
0
0
0
0
0
0
0
0
0
0
0
0
0
0
0
0
0
0
0
0
0
0
0
0
0
0
0
0
0
0
0
0
0
0
0
0
0
0
0
0
0
0
0
0
0
0
0
0
0
0
0
0
0
0
0
0
0
0
0
0
0
0
0
0
0
0
0
0
0
0
0
0
0
0
0
0
0
0
0
0
0
0
0
0
0
0
0
0
0
0
0
0
0
0
0
0
0
0
0
0
0
0
0
0
0
0
0
0
0
0
0
0
0
0
0
0
0
0
0
0
0
0
0
0
0
0
0
0
0
0
0
0
0
0
0
0
0
0
0
0
0
0
0
0
0
0
0
0
0
0
0
0
0
0
0
0
0
0
0
0
0
0
0
0
0
0
0
0
0
0
0
0
0
0
0
0
0
0
0
0
0
0
0
0
0
0
0
0
0
0
0
0
0
0
0
0
0
0
0
0
0
0
0
0
0
0
0
0
0
0
0
0
0
0
0
0
0
0
0
0
0
0
0
0
0
0
0
0
0
0
0
0
0
0
0
0
0
0
0
0
0
0
0
0
0
0
0
0
0
0
0
0
0
0
0
0
0
0
0
0
0
0
0
0
0
0
0
0
0
0
0
0
0
0
0
0
0
0
0
0
0
0
0
0
0
0
0
0
0
0
0
0
0
0
0
0
0
0
0
0
0
0
0
0
0
0
0
0
0
0
0
0
0
0
0
0
0
0
0
0
0
0
0
0
0
0
0
0
0
0
0
0
0
0
0
0
0
0
0
0
0
0
0
0
0
0
0
0
0
0
0
0
0
0
0
0
0
0
0
0
0
0
0
0
0
0
0
0
0
0
0
0
0
0
0
0
0
0
0
0
0
0
0
0
0
0
0
0
0
0
0
0
0
0
0
0
0
0
0
0
0
0
0
0
0
0
0
0
0
0
0
0
0
0
0
0
0
0
0
0
0
0
0
0
0
0
0
0
0
0
0
0
0
0
0
0
0
0
0
0
0
0
0
0
0
0
0
0
0
0
0
0
0
0
0
0
0
0
0
0
0
0
0
0
0
0
0
0
0
0
0
0
0
0
0
0
0
0
0
0
0
0
0
0
0
0
0
0
0
0
0
0
0
0
0
0
0
0
0
0
0
0
0
0
0
0
0
0
0
0
0
0
0
0
0
0
0
0
0
0
0
0
0
0
0
0
0
0
0
0
0
0
0
0
0
0
0
0
0
0
0
0
0
0
0
0
0
0
0
0
0
0
0
0
0
0
0
0
0
0
0
0
0
0
0
0
0
0
0
0
0
0
0
0
0
0
0
0
0
0
0
0
0
0
0
0
0
0
0
0
0
0
0
0
0
0
0
0
0
0
0
0
0
0
0
0
0
0
0
0
0
0
0
0
0
0
0
0
0
0
0
0
0
0
0
0
0
0
0
0
0
0
0
0
0
0
0
0
0
0
0
0
0
0
0
0
0
0
0
0
0
0
0
0
0
0
0
0
0
0
0
0
0
0
0
0
0
0
0
0
0
0
0
0
0
0
0
0
0
0
0
0
0
0
0
0
0
0
0
0
0
0
0
0
0
0
0
0
0
0
0
0
0
0
0
0
0
0
0
0
0
0
0
0
0
0
0
0
0
0
0
0
0
0
0
0
0
0
0
0
0
0
0
0
0
0
0
0
0
0
0
0
0
0
0
0
0
0
0
0
0
0
0
0
0
0
0
0
0
0
0
0
0
0
0
0
0
0
0
0
0
0
0
0
0
0
0
0
0
0
0
0
0
0
0
0
0
0
0
0
0
0
0
0
0
0
0
0
0
0
0
0
0
0
0
0
0
0
0
0
0
0
0
0
0
0
0
0
0
0
0
0
0
0
0
0
0
0
0
0
0
0
0
0
0
0
0

SCALARS Inertia_Change float 1
LOOKUP_TABLE default
13.7699
13.7655
13.7627
13.7611
13.7552
13.756
13.7616
13.7659
13.7635
13.7634
13.7624
13.7592
13.7604
13.7634
13.7621
13.7608
13.7616
13.7628
13.7638
13.7653
13.7661
13.7616
13.7601
13.7604
13.7623
13.7623
13.7611
13.7625
13.7673
13.7632
13.7613
13.7636
13.7644
13.7618
13.7597
13.7706
13.7637
13.7609
13.7641
13.7641
13.7652
13.7634
13.7626
13.7595
13.7606
13.7619
13.7606
13.764
13.7639
13.7599
13.7602
13.7608
13.7606
13.7604
13.7617
13.7608
13.7601
13.7605
13.7583
13.7607
13.762
13.7623
13.7616
13.761
13.7607
13.7587
13.7611
13.7628
13.7626
13.7615
13.7683
13.7651
13.7622
13.763
13.763
13.7606
13.7589
13.7661
13.7624
13.7628
13.765
13.7632
13.7616
13.7617
13.7664
13.7643
13.7649
13.7662
13.7638
13.7618
13.763
13.7686
13.7662
13.7639
13.7647
13.7644
13.7625
13.7616
13.7623
13.7612
13.7606
13.7593
13.7588
13.7621
13.7626
13.7623
13.7643
13.7629
13.7569
13.759
13.7643
13.763
13.7654
13.7656
13.7652
13.7594
13.7609
13.7658
13.7641
13.7658
13.7629
13.7618
13.7607
13.7592
13.7606
13.7617
13.7612
13.7616
13.7615
13.7634
13.7617
13.761
13.7619
13.7587
13.7627
13.7642
13.7641
13.7645
13.7644
13.7619
13.7641
13.7655
13.7621
13.7584
13.7619
13.763
13.7605
13.7611
13.7628
13.7613
13.7587
13.7609
13.7931
13.762
13.7615
13.7635
13.762
13.7601
13.7703
13.8022
13.7611
13.764
13.7648
13.7629
13.956
14.2858
13.7731
13.7606
13.7598
13.7617
13.7627
13.8496
14.5897
14.9293
14.6011
13.7557
13.7603
13.7596
13.7588
13.9413
17.0188
17.3485
13.755
13.7611
13.761
13.7602
13.7855
15.7423
15.7396
13.7603
13.7627
13.7626
13.7621
14.0057
14.046
14.3198
13.7614
13.7622
13.8729
14.2301
13.9848
14.1079
14.2748
13.7605
13.7602
14.1517
14.294
13.7598
13.761
13.8762
13.7576
13.7589
14.1977
13.7595
13.7585
13.7586
13.7591
13.7559
13.7598
13.7633
13.762
13.7633
13.761
13.7602
13.7584
13.7628
13.7668
13.7651
13.7651
13.7626
13.8371
13.7561
13.808
14.1114
13.7645
14.1263
14.5001
14.6311
13.7569
13.7591
14.1467
13.8291
13.8442
14.8877
15.6398
13.7628
13.7615
13.7775
14.0706
13.7585
14.6092
16.6131
13.7568
13.7587
13.7623
14.0012
14.07
13.8818
15.5217
13.7543
13.7603
13.7771
13.9367
14.0988
13.7653
13.7645
13.7601
13.7628
13.7618
13.7587
13.7619
13.8478
13.7624
13.7586
13.7615
13.7611
13.7593
13.7623
14.3895
14.2089
13.7635
13.7655
13.7665
13.797
13.9628
13.9546
13.854
13.7686
13.7676
13.7672
13.8635
14.0854
14.0854
14.2744
13.7641
13.7634
13.7626
13.7642
14.1183
14.3286
14.5183
13.7602
13.7629
13.7619
13.7602
13.8837
14.2562
14.2875
13.7568
13.7608
13.763
13.7611
13.7584
14.5515
15.2588
13.7573
13.7575
13.7608
13.8067
13.8904
15.1412
16.5591
13.7615
13.7602
13.7623
13.7646
14.4934
15.3952
16.416
13.7607
13.7625
13.7656
14.1597
14.5641
14.2649
14.6559
13.7626
13.7627
13.7642
14.3245
14.0374
13.7621
14.0986
13.7649
13.7629
13.7626
13.8648
13.7706
13.7687
14.2039
13.7648
13.7634
13.7611
13.7587
13.7616
13.7647
13.762
13.7652
13.7653
13.764
13.7582
14.0447
14.0105
13.7646
13.7601
13.7633
13.8021
13.7605
14.048
13.8869
13.763
13.759
13.7604
13.7598
13.7718
13.7652
13.9956
16.2004
13.7553
13.7575
13.758
13.7588
13.7621
13.9824
19.0716
13.7561
13.7599
13.76
13.7577
13.7612
13.7614
16.4972
13.7664
13.7659
13.7637
13.7641
13.7672
13.7647
15.3422
13.763
13.7604
13.7612
13.7647
13.8934
14.7703
16.6474
13.7582
13.7572
14.014
14.1851
13.7684
14.9417
14.4659
13.7595
13.7583
14.0588
14.2341
13.7819
14.8539
14.8082
13.7547
13.7559
13.7593
13.9024
14.0528
16.9157
16.7187
13.7522
13.7568
13.7602
13.7569
14.2964
15.7805
15.7984
13.7537
13.7566
13.7587
13.7535
13.8559
13.9771
14.0228
13.7574
13.7589
13.7572
13.7558
13.7545
15.883
18.0013
13.7604
13.763
13.7576
13.756
13.8389
17.8958
22.318
13.7605
13.758
13.7593
13.7616
13.7593
13.7603
13.7671
13.7687
13.7626
13.7597
13.7594
13.7604
13.7584
13.7575
13.7604
13.7612
13.7636
13.7604
13.7605
13.7606
13.762
13.76
13.7575
13.7576
13.7606
13.7597
13.7617
13.7595
13.763
13.7668
13.7635
13.7605
13.7579
13.7588
13.7623
13.7603
13.7625
13.7664
13.7634
13.7605
13.7597
13.759
13.7604
13.7618
13.7634
13.762
13.7598
13.76
13.7633
13.762
13.761
13.7642
13.7634
13.7602
13.7609
13.7623
13.7598
13.7584
13.7604
13.7681
13.7645
13.7606
13.7625
13.7615
13.7587
13.7588
13.7603
13.7642
13.7633
13.7642
13.7623
13.7577
13.761
13.763
13.7626
13.7605
13.763
13.7649
13.7604
13.7587
13.76
13.7618
13.7628
13.7617
13.7615
13.7604
13.7592
13.7603
13.7626
13.7605
13.7617
13.7634
13.762
13.7615
13.76
13.7584
13.7632
13.7604
13.7613
13.7632
13.7631
13.7638
13.7629
13.7607
13.76
13.7593
13.7628
13.7642
13.7606
13.7608
13.7642
13.7651
13.7602
13.7591
13.7625
13.7628
13.7597
13.7594
13.7632
13.7671
13.7598
13.7602
13.7615
13.76
13.761
13.7602
13.7629
13.7686
13.7605
13.7602
13.7639
13.7642
13.766
13.7618
13.759
13.762
13.7604
13.761
13.765
13.7652
13.765
13.7619
13.7586
13.759
13.7584
13.7603
13.7633
13.7639
13.7614
13.7586
13.7585
13.7583
13.7565
13.7585
13.7617
13.7652
13.7638
13.7592
13.7604
13.7617
13.7604
13.7622
13.7632
13.765
13.7642
13.7624
13.7654
13.7679
13.7615
13.7763
13.7626
13.7622
13.7602
13.7599
13.7621
13.7644
13.7615
13.7621
13.7599
13.7594
13.7588
13.7577
13.7601
13.7632
13.7639
13.7631
13.7603
13.7627
13.7643
13.762
13.7617
13.762
13.8591
13.7616
13.7613
13.7641
13.7635
13.7612
13.7606
13.7599
13.881
13.7632
13.7643
13.7634
13.7607
13.7592
13.758
13.7563
13.8751
13.9858
13.7622
13.7623
13.7618
13.7609
13.7596
13.7561
14.1673
13.9329
13.761
13.7619
13.7596
13.7584
13.7608
13.7595
13.9988
13.7597
13.7602
13.7634
13.7607
13.7588
13.7616
13.7623
13.9046
13.7614
13.7629
13.7619
13.7606
13.7617
13.7635
13.7635
13.7626
13.8407
13.7652
13.7689
13.7614
13.762
13.7625
13.7639
13.7636
13.9517
13.7919
13.7966
13.7625
13.7592
13.7595
13.7633
14.2334
13.9938
13.8323
13.7642
13.7653
13.7628
13.7615
13.7631
14.8007
14.4378
13.9059
13.7649
13.7664
13.765
13.7626
13.7635
15.0385
14.311
13.9795
13.7651
13.7607
13.7599
13.7607
13.7607
15.8731
13.8942
13.9958
13.7913
13.76
13.76
13.7624
13.7595
15.7124
14.2114
13.7901
13.7653
13.7623
13.7607
13.7635
13.7611
14.5425
14.4584
13.8295
13.7612
13.7611
13.7608
13.7632
13.7629
13.8262
14.4378
14.1767
13.7596
13.7571
13.7601
13.7613
13.7609
13.8409
14.2436
14.3904
13.806
13.7585
13.7624
13.765
13.7637
13.8284
14.1107
14.3478
13.8626
13.7639
13.7641
13.7664
13.7656
14.017
14.0661
14.3364
13.7927
13.7647
13.7633
13.7636
13.763
16.0791
15.6012
13.9133
13.7603
13.7603
13.7588
13.7611
13.763
16.9449
16.287
13.7608
13.7608
13.7619
13.7597
13.7603
13.7611
15.139
14.3567
13.8093
13.9307
13.7643
13.7642
13.7614
13.761
15.0726
13.7657
14.1466
13.8626
13.7594
13.7613
13.7596
13.7608
15.7226
14.2141
13.8669
13.7588
13.7578
13.7603
13.7599
13.7605
14.7308
13.7949
13.7614
13.762
13.7608
13.7632
13.7634
13.7621
14.5899
13.7625
13.762
13.7637
13.7625
13.7639
13.764
13.7623
14.6663
13.8013
13.7654
13.76
13.7609
13.7633
13.7621
13.7609
14.106
14.3324
14.0249
13.7589
13.7598
13.761
13.7583
13.758
14.2073
14.6022
14.1048
13.7571
13.7572
13.7582
13.7572
13.7584
15.1288
15.1149
13.8333
13.7597
13.7586
13.7587
13.7596
13.7612
16.6095
14.9159
13.8514
13.763
13.7626
13.7597
13.7598
13.7616
18.415
13.9119
13.7615
13.7604
13.763
13.7632
13.7602
13.7569
16.7641
13.7607
13.7615
13.7621
13.7637
13.7634
13.761
13.7579
16.1562
14.1532
13.7662
13.7648
13.7644
13.7646
13.7638
13.7625
16.7566
14.6648
13.7677
13.7641
13.7635
13.7633
13.7612
13.7585
14.5822
14.7857
13.8547
13.7606
13.7595
13.7609
13.7588
13.7555
14.178
14.1462
13.8694
13.758
13.7548
13.7583
13.7591
13.7578
13.7579
13.8982
13.8325
13.7572
13.7537
13.7558
13.759
13.7594
13.9454
13.759
13.7579
13.7575
13.7578
13.7606
13.7583
13.7536
13.7577
13.7569
13.7562
13.755
13.7552
13.7583
13.7559
13.7518
16.15
14.1823
13.9096
13.756
13.7551
13.7595
13.7598
13.7571
19.0244
14.8031
14.1779
13.9054
13.7951
13.7643
13.762
13.7568
0
0
0
0

VECTORS Velocity float
0 0 0
0 0 0
0 0 0
0 0 0
0 0 0
0 0 0
0 0 0
-0.0437285 0 -0.047148
-0.0625634 0.0102005 -0.00394814
0.0394121 -0.00426778 0.0134103
-0.0771466 0.0469744 0.0126683
0.00664019 0.00347743 0.0578983
-0.0435271 -0.0724009 -0.00253391
0.0576229 -0.0284828 0.0610922
0.106317 0 -0.0437217
0.00811207 0.039557 -0.0351598
-0.0560767 0.0924252 -0.0197221
0.10227 0.0992755 -0.0274402
-0.010853 0.023439 -0.0918778
0.0205228 -0.0212238 -0.0123112
-0.0313778 -0.0553609 -0.0753311
0.0351301 0 0.0606595
0.167745 -0.0207479 -0.0149174
0.0229247 -0.0370274 -0.00298414
0.0182902 -0.00348335 0.0453161
-0.0872715 -0.0677404 0.0988552
-0.0160632 0.00705288 0.0385054
-0.0946584 -0.0953763 0.0439546
0.164602 0 0.121922
-0.0221188 0.0578343 -0.0468819
0.0930097 0.132468 -0.00895959
-0.0433382 -0.0170605 0.0587739
0.0976596 -0.0179773 0.00899468
0.0172583 -0.026823 -0.0362797
0.0369163 -0.0416627 0.0383518
0.0869612 0 0.0711841
0.167655 -0.0061057 0.0232168
0.120814 0.0544958 0.0355296
0.116563 0.100547 0.0453162
0.0347324 -0.0221328 -0.0497378
0.0767725 -0.00215736 -0.0477179
-0.0195913 -0.0677642 -0.0464979
0.0602013 0 0.107408
0.0517912 -0.042658 0.0214929
0.158723 0.00441533 0.0302496
0.053265 -0.0377438 -0.0446367
0.210669 -0.0513336 0.0250148
-0.0222774 0.0198062 -0.0260532
0.112883 -0.00394901 0.0674116
-0.0421623 0 0.104681
0.101655 0.00864327 0.0504109
-0.0401481 -0.0290468 -0.0845369
0.146669 -0.0798535 0.00790196
0.108683 -0.0592749 -0.0124512
0.184833 -0.0922569 0.0518464
0.00638355 0.00972495 -0.00309876
0.048194 0 0.024545
-0.0581435 -0.0121372 -0.131334
0.109782 0.0182542 -0.076543
0.0387661 0.0236972 -0.0968938
0.191748 0.0179504 -0.0258985
0.0841174 0.110667 -0.0516102
-0.0811902 0.0858497 0.0477951
0.040035 0 -0.0377153
0.0632443 -0.0761112 0.0645838
-0.0880739 -0.0689863 -0.0137272
0.20242 -0.0404245 0.0963071
0.0940795 -0.0648022 -0.0565488
0.120583 -0.0501131 0.057672
-0.443348 -0.0455516 0.0846496
0.479202 0 0.105495
0.343705 -0.0331769 -0.00396875
0.478884 -0.0296523 0.11897
0.415356 0.00447913 -0.0273011
0.543377 0.0740354 0.0713925
0.163252 0.0176856 -0.0489549
-0.537019 -0.105302 0.138484
1.33423 0 -0.113078
1.71464 0.00610492 0.095191
1.45542 -0.0518547 -0.085418
1.66642 -0.0687795 -0.0550229
1.23179 -0.0267615 -0.111107
0.695313 -0.120979 0.0595616
-0.913007 -0.320571 0.0108382
2.96414 0 -0.140795
2.66588 -0.00574292 -0.306193
2.91529 -0.0188198 -0.190244
2.72323 -0.0372334 -0.213395
2.56974 -0.0195428 -0.141711
0.912027 -0.215748 -0.174992
-1.01213 -0.550924 0.100978
3.93521 0 -0.386115
4.20925 -0.0561576 -0.310312
3.9903 -0.0520624 -0.41115
4.36743 -0.00635146 -0.346119
3.67543 -0.0451658 -0.405542
1.88027 -0.272551 -0.169276
-1.40826 -0.984845 0.0860264
5.31862 0 -0.572938
5.21603 -0.0270198 -0.613925
5.61007 -0.0646463 -0.503395
5.45836 -0.0275962 -0.601773
5.11331 -0.059389 -0.471707
2.44977 -0.435633 -0.448347
-1.52829 -1.41202 -0.0762946
6.2936 0 -0.643267
6.54318 -0.000402934 -0.576282
6.52543 -0.011379 -0.660082
6.72847 -0.041573 -0.594387
5.98962 -0.0377622 -0.66435
3.66399 -0.407613 -0.689624
-1.45258 -1.75577 -0.77127
7.23939 0 -0.484485
7.08006 0.0355341 -0.650556
7.35182 -0.00963232 -0.571348
6.98868 0.0141383 -0.61814
6.75127 -0.0287031 -0.651736
4.30678 -0.386626 -1.08104
-0.709682 -1.60281 -1.6691
7.11279 0 -0.552607
7.25452 0.0239097 -0.554076
7.13408 0.0646234 -0.609076
7.29088 0.00675662 -0.533395
6.60673 0.0668868 -0.676565
4.47536 -0.0980594 -1.2761
-0.0371494 -0.758219 -2.60281
5.79311 0 -1.13824
5.73744 0.0415306 -1.18093
5.831 0.0233947 -1.0808
5.86697 -0.00426019 -1.0743
5.68597 -0.044626 -1.07452
3.83221 0.112036 -1.79149
0.430286 0.270546 -2.69098
3.3463 0 -2.54758
3.33694 -0.0327276 -2.45635
3.30526 0.0111888 -2.51686
3.39746 -0.0953498 -2.2948
2.98974 -0.0178516 -2.54985
1.9695 0.0792961 -2.63914
-0.174244 0.774038 -2.85124
1.01523 0 -3.96184
1.03198 0.0277469 -4.02258
1.00364 -0.0280788 -3.80013
0.930204 0.0738428 -3.78077
0.2292 0.0129137 -4.00009
-0.996234 0.303117 -4.23097
-2.00424 0.752581 -3.18767
-1.20374 0 -5.68386
-1.26093 -0.0485112 -5.52491
-1.38724 0.0357533 -5.60528
-1.6761 0.0801378 -5.38844
-2.63055 0.298399 -5.8422
-4.38205 0.603802 -6.08133
-4.95767 1.07155 -4.76538
-3.44927 0 -7.21954
-3.37862 0.0441777 -7.33556
-3.62632 0.0195673 -7.05663
-3.83194 0.241428 -7.11028
-5.21935 0.366326 -7.23704
-7.41802 1.26655 -8.19203
-7.92759 1.6172 -7.11285
-4.63735 0 -8.20242
-4.97829 -0.00943179 -8.23556
-5.06286 0.109419 -8.39614
-5.68376 0.0311209 -8.08628
-6.18438 0.542138 -8.22429
-8.18006 1.37721 -8.31798
-9.17813 2.72758 -9.36714
-2.89913 0 -8.05168
-2.85398 -0.0521964 -8.40526
-3.30562 -0.106424 -7.8924
-3.19923 0.0333111 -8.18946
-3.94681 -0.0104833 -7.94343
-4.61125 0.533043 -7.85841
-6.10621 2.0189 -10.4225
0.175388 0 -12.1053
0.178849 0.0626264 -11.8829
0.195445 0.0182898 -12.6321
0.0110041 -0.0375566 -12.1685
0.450579 -0.428678 -11.9623
0.101467 -0.874955 -10.6776
-2.44182 0.609994 -13.7316
-0.149725 0 -14.6762
-0.328019 0.0750134 -14.9264
-0.535987 0.104283 -14.8828
-0.363473 0.0756695 -14.9576
-0.236788 -0.077657 -14.2262
0.0525183 0.07916 -14.5015
-0.262454 0.450389 -14.8758
-0.4406 0 -15.2436
-0.418313 0.0550948 -14.9415
-0.267002 0.0480623 -14.8365
-0.382227 0.0645734 -14.3795
-0.153322 0.0984441 -14.5924
-0.190051 -0.0758995 -14.0289
-0.102381 0.489189 -14.9293
-0.155586 0 -14.2971
-0.133353 -0.0397112 -14.4036
-0.0188553 0.121721 -14.1292
-0.0715398 -0.0236737 -14.3175
-0.0790845 0.0789854 -14.0807
-0.19979 0.123219 -14.4588
0.281205 0.521741 -13.9351
-0.161487 0 -14.0636
-0.0111023 0.0127266 -13.9578
-0.0877992 -0.0603687 -14.0176
0.0402106 -0.0855771 -13.7153
-0.148201 -0.0424493 -14.2949
-0.172887 0.30929 -13.9909
0.167798 0.376744 -13.709
-0.186506 0 -13.8503
-0.113268 0.017716 -13.7596
-0.0479195 0.0300031 -13.5932
-0.166446 -0.0346596 -13.9005
0.00761583 0.118822 -13.7602
-0.1357 0.227775 -13.9821
0.0419628 0.224565 -13.3524
-0.318768 0 -13.7969
-0.297579 -0.123469 -13.581
-0.300122 -0.0116433 -13.6206
0.00324163 0.13061 -13.6456
-0.0945568 0.0536244 -13.8466
-0.0435038 0.251591 -13.9284
0.0744295 0.186954 -14.0693
-0.116332 0 -13.5648
-0.275644 0.0487025 -13.5952
-0.243061 0.143919 -13.7137
-0.190318 -0.0654077 -13.5543
-0.140081 0.0995837 -13.8986
-0.0784814 -0.125393 -13.8094
-0.0368611 -0.0488387 -13.9342
0.0760551 0 -13.6394
-0.235283 0.0745038 -13.5318