# vtk DataFile Version 3.0
vtk output
ASCII
DATASET UNSTRUCTURED_GRID
FIELD FieldData 2
TIME 1 1 double
0.0500052
CYCLE 1 1 int
0
POINTS 450 float
1491.42 -390.293 517.283
1499.56 -390.215 556.551
1500.33 -345.205 556.105
1492.29 -345.282 516.847
1485.98 -389.046 516.874
1493.81 -388.921 557.671
1493.28 -345.274 557.662
1485.45 -345.349 516.885
1507.6 -390.138 595.809
1508.48 -345.128 595.373
1501.85 -388.844 596.919
1501.43 -345.196 596.94
1515.75 -390.061 635.077
1516.62 -345.05 634.641
1510 -388.757 636.187
1509.57 -345.119 636.208
1522.73 -389.994 673.547
1524.77 -344.972 673.909
1518.63 -388.754 678.055
1518.86 -345.03 677.843
1510.43 -415.045 680.499
1510.26 -408.627 680.518
1515.57 -400.275 679.623
1520.62 -402.476 677.481
1500.58 -415.199 636.568
1500.91 -408.346 636.658
1506.12 -399.445 636.194
1511.4 -402.594 634.974
1492.65 -415.285 598.281
1492.88 -408.553 597.821
1498.04 -399.412 597.132
1503.36 -402.68 596.197
1484.3 -415.365 558.032
1484.52 -409.072 558.131
1489.83 -399.72 557.658
1495.21 -402.758 556.458
1476.16 -415.452 518.754
1476.58 -408.548 518.844
1482 -399.655 516.871
1487.07 -402.846 517.18
1490.54 -300.297 517.296
1498.68 -300.219 556.564
1485.12 -301.64 516.887
1492.86 -301.626 557.654
1506.73 -300.143 595.812
1501 -301.548 596.932
1514.87 -300.065 635.08
1509.15 -301.481 636.2
1522.83 -299.989 673.75
1517.78 -301.318 678.058
1509.07 -275.192 680.514
1519.5 -287.561 677.486
1514.49 -289.86 679.638
1509.03 -281.613 680.524
1499.22 -275.226 636.583
1510.28 -287.619 634.989
1505.06 -290.87 636.198
1499.68 -282.072 636.663
1491.29 -275.292 598.296
1502.24 -287.686 596.201
1496.98 -291.057 597.146
1491.65 -282.018 597.826
1482.94 -275.371 558.037
1493.99 -287.764 556.443
1488.77 -290.895 557.672
1483.28 -281.648 558.136
1474.79 -275.429 518.769
1485.95 -287.831 517.195
1480.94 -291.11 516.885
1475.35 -282.324 518.859
1493.03 -225.16 546.808
1504.36 -255.174 548.571
1489.9 -255.291 510.883
1478.06 -228.522 512.186
1543.64 -255.082 660.74
1547.2 -299.888 661.423
1534.29 -299.999 624.122
1533.78 -255.106 624.034
1521.03 -300.038 586.249
1517.76 -255.184 586.336
1507.26 -300.038 548.629
1494.9 -299.983 510.437
1475.76 -299.791 467.261
1467.71 -262.204 469.946
1456.27 -305.183 426.734
1447.43 -271.906 428.494
1437.11 -310.635 389.704
1421.96 -281.953 394.904
1549.16 -344.926 661.288
1537.05 -344.934 623.023
1523.45 -344.941 585.273
1509.91 -344.956 547.463
1497.34 -344.943 509.388
1479.73 -344.51 467.394
1460.55 -345.152 425.928
1441.33 -344.274 388.346
1351.04 -389.97 809.799
1358.76 -428.603 805.332
1379.86 -425.561 819.054
1367.95 -389.956 826.649
1547.94 -389.846 709.109
1539.13 -389.881 747.916
1531.33 -428.946 746.619
1541.57 -432.136 715.084
1405.5 -424.476 833.527
1389.21 -389.952 849.017
1416.3 -389.917 856.221
1437.7 -425.056 828.679
1493.5 -383.244 831.426
1476 -425.63 816.181
1520.36 -389.927 792.769
1511.69 -425.793 785.74
1507.37 -224.699 585.732
1521.12 -224.57 624.522
1533.97 -224.291 663.797
1437.56 -377.926 389.611
1456.94 -383.933 426.788
1525.82 -465.207 625.017
1532.07 -434.894 621.727
1544.32 -434.86 659.408
1540.61 -465.465 663.957
1510.89 -464.866 586.139
1518.37 -434.83 585.114
1535.37 -389.939 623.779
1546.26 -389.937 661.33
1522.33 -389.94 585.818
1504.38 -434.781 546.459
1508.48 -389.914 548.2
1490.43 -434.812 508.924
1495.57 -389.937 510.202
1467.48 -427.512 470.179
1477.95 -389.682 466.265
1447.29 -417.916 428.716
1422.13 -408.15 394.848
1354.07 -299.902 808.489
1369.12 -299.958 826.162
1377.09 -264.188 818.259
1360.71 -261.227 804.626
1539.54 -299.965 750.596
1549.13 -299.972 709.413
1541.73 -257.639 715.124
1533.6 -260.933 752.982
1389.69 -299.913 847.805
1408.62 -265.246 833.582
1414.37 -299.912 857.095
1438.25 -264.661 832.951
1493.41 -306.66 831.387
1478.79 -264.055 820.745
1522.19 -299.902 789.737
1515.62 -264.017 785.16
1383.84 -228.557 813.857
1367.7 -226.685 800.261
1526.66 -223.429 720.094
1525.03 -219.881 752.266
1415.74 -225.673 821.932
1441.35 -224.31 820.991
1472.88 -223.164 809.974
1507 -223.2 781.215
1502.94 -182.264 728.38
1498.56 -178.741 754.556
1417.5 -179.994 810.724
1392.28 -178.051 807.431
1441.01 -179.853 808.495
1465.81 -179.296 798.512
1488.99 -178.429 780.888
1532.55 -464.518 717.991
1520.87 -344.926 790.346
1537.84 -344.909 747.928
1548.28 -344.911 709.678
1349.58 -469.713 772.703
1367.78 -463.095 800.057
1331.68 -431.503 778.875
1326.77 -388.988 781.288
1347.75 -344.943 811.017
1322.28 -345.915 782.97
1325.29 -302.873 781.943
1333.5 -260.349 778.224
1349.62 -220.14 772.818
1374.08 -177.145 795.833
1494.8 -344.617 830.795
1427.41 -178.382 791.638
1462.65 -176.621 776.03
1456.22 -182.439 752.291
1417.9 -179.054 772.778
1445.47 -180.419 728.55
1408.89 -180.986 742.929
1485.45 -183.947 706.439
1364.04 -195.187 767.712
1391.1 -510.705 804.64
1433.58 -509.527 788.059
1445.26 -511.892 805.652
1416.45 -509.774 807.941
1468.47 -508.893 771.564
1469.31 -509.474 793.805
1502.4 -505.07 753.129
1492.81 -507.386 779.438
1464.59 -505.933 748.9
1510.59 -502.6 725.46
1423.51 -499.669 770.785
1374.1 -507.614 795.727
1408.89 -508.574 742.841
1445.51 -509.031 728.493
1485.49 -505.563 706.448
1363.96 -494.668 767.581
1406.68 -255.676 401.483
1384.95 -232.435 411.231
1406.08 -222.165 437.858
1427.56 -247.933 427.965
1424.21 -213.111 467.339
1445.3 -242.121 457.038
1442.21 -201.059 495.847
1462.98 -232.903 485.444
1358.44 -219.152 422.239
1379.45 -209.801 448.849
1397.86 -202.905 478.253
1415.48 -190.896 506.7
1329.94 -209.93 432.57
1346.41 -204.67 461.853
1360.4 -201.205 493.351
1373.57 -191.945 524.163
1299.92 -208.195 442.979
1312.5 -205.263 474.509
1323.05 -202.372 507.811
1332.75 -194.209 540.628
1270.79 -214.79 452.6
1279.02 -212.507 486.792
1285.38 -210.09 522.487
1242.3 -227.215 461.854
1248.87 -226.889 499.627
1254.14 -226.819 538.566
1258.81 -224.695 577.591
1290.72 -203.597 557.974
1222.63 -253.88 469.211
1229.57 -254.104 507.209
1236.02 -254.761 546.052
1241.87 -254.232 584.989
1207.26 -281.81 475.446
1216.09 -283.613 512.9
1225.08 -285.74 550.761
1233.1 -287.001 588.84
1200.43 -313.274 479.318
1210.72 -314.313 516.029
1221.58 -315.433 552.826
1231.24 -316.078 589.963
1198.22 -344.371 481.811
1208.8 -344.632 518.137
1220.14 -344.817 554.247
1230.52 -344.847 590.718
1427.66 -442.1 428.059
1406.27 -467.943 437.834
1385.37 -457.958 410.91
1407.08 -434.616 401.291
1445.12 -447.651 457.304
1424.68 -473.859 467.369
1462.98 -456.893 485.562
1443.03 -482.789 495.831
1379.78 -479.482 448.518
1358.67 -470.678 422.061
1398.35 -484.434 477.924
1416.61 -491.08 506.646
1346.56 -485.347 461.584
1330.12 -479.912 432.308
1360.59 -488.864 493.048
1373.85 -497.611 523.968
1312.72 -484.177 474.332
1300.08 -481.374 442.799
1323.36 -486.788 507.657
1333.05 -494.904 540.471
1279.37 -476.471 486.634
1271.02 -474.411 452.478
1285.73 -478.794 522.332
1249.17 -462.166 499.496
1242.58 -461.885 461.723
1254.37 -462.288 538.437
1291.01 -485.448 557.784
1258.92 -464.615 577.441
1229.49 -435.245 507.107
1222.72 -435.369 469.08
1235.64 -434.788 546.006
1241.46 -435.377 584.971
1215.73 -405.912 512.892
1207.19 -407.553 475.334
1224.38 -403.913 550.854
1232.43 -402.718 588.927
1210.42 -375.202 516.043
1200.31 -376.151 479.271
1221.03 -374.214 552.931
1230.8 -373.629 590.061
1483.3 -461.777 512.681
1496.42 -464.835 547.126
1517.88 -191.124 671.09
1494.98 -176.21 681.061
1447.2 -177.371 700.677
1401 -182.003 718.392
1355.45 -193.373 737.046
1316.76 -222.227 745.735
1301.64 -254.385 752.806
1295.78 -289.246 755.219
1295.68 -317.295 754.99
1296.57 -344.955 754.885
1296.66 -372.576 755.061
1295.67 -400.497 755.272
1301.43 -435.41 752.672
1316.7 -467.561 745.544
1354.41 -496.359 736.858
1401.02 -507.506 718.29
1447.14 -512.111 700.726
1495.31 -509.528 681.295
1518.33 -497.387 671.018
1457.61 -192.734 523.543
1436.04 -183.878 535.796
1388.2 -183.824 555.75
1343.48 -186.397 574.328
1296.41 -197.585 594.684
1262.75 -223.073 618.071
1245.76 -254.459 625.729
1238.81 -289.136 628.873
1238.26 -317.254 629.162
1238.12 -344.846 629.251
1238.15 -372.444 629.169
1238.58 -400.57 628.908
1245.56 -435.242 625.706
1262.79 -466.416 617.89
1296.49 -491.69 594.456
1343.7 -502.862 574.128
1388.36 -505.403 555.895
1435.16 -504.538 536.146
1459.44 -494.937 523.906
1502.4 -190.993 632.861
1481.68 -177.3 648.507
1495.48 -192.645 609.153
1473 -192.887 556.886
1483.78 -192.196 586.088
1433.56 -179.339 667.206
1470.98 -178.177 622.047
1423.19 -180.869 641.663
1461.37 -179.376 598.375
1412.4 -181.875 615.193
1449.5 -181.201 569.081
1400.82 -182.577 586.895
1355.81 -186.22 606.581
1367.72 -184.342 634.652
1377.3 -184.32 659.547
1388.47 -181.889 685.762
1342.86 -194.185 707.646
1331.36 -194.725 678.225
1320.89 -195.544 653.623
1310.69 -197.122 627.882
1273.19 -222.919 642.477
1284.53 -222.628 669.448
1295.08 -222.463 694.034
1306.48 -222.233 720.962
1291.02 -254.44 728.182
1278.98 -254.464 700.795
1268.51 -254.526 676.902
1256.45 -254.558 649.524
1249.82 -289.306 652.451
1262.19 -289.307 679.809
1272.74 -289.309 703.533
1285 -289.326 730.86
1284.8 -317.421 730.961
1272.41 -317.405 703.66
1261.75 -317.396 679.927
1249.37 -317.383 652.621
1249.26 -344.872 652.635
1261.62 -344.887 679.959
1272.29 -344.89 703.705
1284.68 -344.908 731.004
1284.66 -372.392 731.005
1272.27 -372.392 703.706
1261.67 -372.379 679.95
1249.35 -372.374 652.593
1249.68 -400.43 652.442
1261.96 -400.46 679.84
1272.51 -400.493 703.587
1284.83 -400.485 730.899
1290.82 -435.373 728.173
1278.75 -435.303 700.804
1268.28 -435.233 676.917
1256.24 -435.156 649.515
1273.22 -466.612 642.333
1284.56 -466.949 669.296
1295.08 -467.172 693.898
1306.46 -467.468 720.832
1341.24 -495.319 702.989
1388.69 -507.888 686.173
1433.7 -510.61 667.739
1480.31 -510.356 644.528
1330.48 -494.7 675.763
1376.48 -505.569 657.113
1422.55 -509.136 640.236
1469.94 -509.532 618.916
1504.08 -498.299 633.294
1491.57 -498.025 602.271
1461.57 -507.929 597.843
1485.22 -497.31 586.55
1412.97 -508.07 616.512
1365.8 -504.912 632.533
1320.88 -493.847 653.761
1309.99 -493.059 625.51
1355.17 -503.278 604.348
1401.75 -507.04 588.917
1448.9 -506.501 569.097
1474.08 -496.12 558.256
1407 -344.936 854.737
1412.8 -356.597 870.716
1422.47 -372.894 870.238
1438.64 -382.687 869.556
1462.66 -382.727 868.528
1478.93 -372.942 867.819
1488.65 -356.666 867.429
1413.47 -356.605 887.368
1423.12 -372.905 886.985
1413.68 -356.659 895.355
1423.41 -372.919 894.981
1414.09 -356.759 910.351
1423.99 -372.911 909.974
1414.31 -356.812 918.348
1424.26 -372.941 917.97
1440.64 -382.532 917.355
1440.24 -382.561 909.358
1439.63 -382.611 894.365
1439.33 -382.639 886.38
1463.24 -382.686 885.341
1463.54 -382.702 893.33
1464.05 -382.721 908.314
1464.44 -382.738 916.31
1480.71 -373.127 915.743
1480.41 -373.11 907.746
1479.89 -373.057 892.743
1479.57 -373.01 884.756
1490.55 -356.938 915.429
1490.27 -356.923 907.432
1489.75 -356.868 892.441
1489.43 -356.832 884.444
1491.32 -356.96 924.903
1481.49 -373.167 925.273
1465.12 -382.761 925.962
1441.22 -382.692 927.004
1424.82 -373.13 927.71
1414.79 -357.057 928.178
1379.99 -344.943 852.996
1387.15 -461.13 813.295
1523.93 -464.972 748.705
1414.57 -459.062 819.001
1441.09 -460.438 817.669
1472.61 -461.551 806.659
1507.56 -461.641 782.228
1363.07 -344.921 830.286
1503 -345.055 596.914

CELLS 452 2216
2 449 2
2 449 3
2 449 6
2 449 7
2 449 40
2 449 41
2 449 42
2 449 43
2 449 44
2 449 45
2 449 54
2 449 55
2 449 56
2 449 57
2 449 58
2 449 59
2 449 60
2 449 61
2 449 62
2 449 63
2 449 64
2 449 65
2 449 66
2 449 67
2 449 68
2 449 69
2 449 9
2 449 11
2 449 13
2 449 15
2 449 17
2 449 19
2 449 46
2 449 47
2 449 48
2 449 49
2 449 50
2 449 51
2 449 52
2 449 53
2 449 8
2 449 10
2 449 12
2 449 14
2 449 16
2 449 18
2 449 20
2 449 21
2 449 22
2 449 23
2 449 24
2 449 25
2 449 26
2 449 27
2 449 28
2 449 29
2 449 30
2 449 31
2 449 0
2 449 1
2 449 4
2 449 5
2 449 32
2 449 33
2 449 34
2 449 35
2 449 36
2 449 37
2 449 38
2 449 39
4 115 95 94 116
4 116 94 93 131
4 70 71 72 73
4 77 76 78 79
4 79 78 80 71
4 71 80 81 72
4 72 81 82 83
4 83 82 84 85
4 85 84 86 87
4 78 90 91 80
4 80 91 92 81
4 81 92 93 82
4 82 93 94 84
4 84 94 95 86
4 112 79 71 70
4 113 77 79 112
4 114 74 77 113
4 153 152 158 159
4 74 114 152 140
4 181 159 158 182
4 183 182 184 185
4 182 158 186 184
4 204 205 206 207
4 207 206 208 209
4 209 208 210 211
4 205 212 213 206
4 206 213 214 208
4 208 214 215 210
4 212 216 217 213
4 213 217 218 214
4 214 218 219 215
4 85 207 209 83
4 204 207 85 87
4 114 290 158 152
4 290 291 186 158
4 292 184 186 291
4 292 293 185 184
4 73 72 83 211
4 211 210 309 73
4 210 215 310 309
4 215 219 311 310
4 328 329 291 290
4 113 328 290 114
4 328 113 112 330
4 331 332 112 70
4 73 309 331 70
4 329 333 292 291
4 330 334 329 328
4 334 335 333 329
4 336 337 335 334
4 332 336 334 330
4 331 338 336 332
4 338 339 337 336
4 310 311 339 338
4 309 310 338 331
4 216 220 221 217
4 217 221 222 218
4 218 222 223 219
4 220 224 225 221
4 221 225 226 222
4 224 227 228 225
4 225 228 229 226
4 226 229 230 231
4 229 234 235 230
4 222 226 231 223
4 293 294 187 185
4 219 223 312 311
4 223 231 313 312
4 231 230 314 313
4 230 235 315 314
4 311 312 340 339
4 339 340 341 337
4 337 341 342 335
4 335 342 343 333
4 333 343 293 292
4 343 344 294 293
4 342 345 344 343
4 341 346 345 342
4 340 347 346 341
4 312 313 347 340
4 313 314 348 347
4 347 348 349 346
4 346 349 350 345
4 345 350 351 344
4 344 351 295 294
4 350 353 352 351
4 349 354 353 350
4 348 355 354 349
4 314 315 355 348
4 330 112 332 332
4 211 83 209 209
4 144 142 441 404
4 280 284 285 281
4 282 286 284 280
4 283 287 286 282
4 320 319 287 283
4 319 320 372 371
4 373 370 371 372
4 373 374 369 370
4 74 75 76 77
4 75 88 89 76
4 76 89 90 78
4 138 139 140 141
4 142 144 145 143
4 144 146 147 145
4 146 148 149 147
4 148 138 141 149
4 141 140 152 153
4 136 143 154 150
4 143 145 155 154
4 145 147 156 155
4 147 149 157 156
4 149 141 153 157
4 150 154 160 161
4 154 155 162 160
4 155 156 163 162
4 156 157 164 163
4 157 153 159 164
4 75 74 140 139
4 148 166 167 138
4 138 167 168 139
4 139 168 88 75
4 178 151 150 161
4 166 148 146 179
4 160 162 180 161
4 162 163 181 180
4 163 164 159 181
4 180 181 182 183
4 161 180 183 178
4 134 135 136 137
4 135 142 143 136
4 137 136 150 151
4 174 173 134 175
4 175 134 137 176
4 176 137 151 177
4 151 178 187 177
4 227 232 233 228
4 228 233 234 229
4 232 236 237 233
4 233 237 238 234
4 234 238 239 235
4 236 240 241 237
4 237 241 242 238
4 238 242 243 239
4 240 244 245 241
4 241 245 246 242
4 242 246 247 243
4 284 245 244 285
4 286 246 245 284
4 287 247 246 286
4 294 295 177 187
4 295 296 176 177
4 296 297 175 176
4 298 299 174 175
4 235 239 316 315
4 239 243 317 316
4 243 247 318 317
4 319 318 247 287
4 351 352 296 295
4 315 316 356 355
4 355 356 357 354
4 354 357 358 353
4 353 358 359 352
4 352 359 297 296
4 359 360 298 297
4 358 361 360 359
4 362 361 358 357
4 356 363 362 357
4 363 356 316 317
4 317 318 364 363
4 363 364 365 362
4 362 365 366 361
4 361 366 367 360
4 360 367 299 298
4 300 299 367 368
4 368 367 366 369
4 369 366 365 370
4 370 365 364 371
4 371 364 318 319
4 134 173 448 135
4 135 448 441 142
4 297 298 175 175
4 96 97 98 99
4 100 101 102 103
4 99 98 104 105
4 106 105 104 107
4 108 106 107 109
4 101 110 111 102
4 110 108 109 111
4 119 124 100 103
4 120 119 103 165
4 166 110 101 167
4 169 170 97 171
4 110 166 179 108
4 188 189 190 191
4 189 192 193 190
4 192 194 195 193
4 196 197 194 192
4 198 196 192 189
4 199 198 189 188
4 200 201 196 198
4 201 202 197 196
4 169 203 199 170
4 201 200 305 306
4 307 202 201 306
4 197 202 307 308
4 308 120 165 197
4 307 306 386 387
4 308 307 387 392
4 120 308 392 117
4 404 405 406 106
4 106 407 408 108
4 409 410 179 108
4 411 412 406 405
4 413 414 412 411
4 415 416 414 413
4 417 418 416 415
4 418 419 420 416
4 416 420 421 414
4 414 421 422 412
4 412 422 407 406
4 422 423 408 407
4 421 424 423 422
4 420 425 424 421
4 419 426 425 420
4 426 427 428 425
4 425 428 429 424
4 424 429 430 423
4 423 430 409 408
4 427 431 432 428
4 428 432 433 429
4 429 433 434 430
4 430 434 410 409
4 435 431 427 436
4 436 427 426 437
4 437 426 419 438
4 438 419 418 439
4 439 418 417 440
4 404 441 105 106
4 97 170 442 98
4 103 102 443 165
4 98 442 444 104
4 107 104 444 445
4 109 107 445 446
4 102 111 447 443
4 111 109 446 447
4 170 199 188 442
4 165 443 194 197
4 442 188 191 444
4 445 444 191 190
4 446 445 190 193
4 443 447 195 194
4 447 446 193 195
4 173 96 99 448
4 448 99 105 441
4 117 118 119 120
4 121 122 118 117
4 118 123 124 119
4 122 125 123 118
4 392 387 391 393
4 393 121 117 392
4 123 89 88 124
4 125 90 89 123
4 167 101 100 168
4 168 100 124 88
4 408 409 108 108
4 106 407 406 406
4 171 97 96 172
4 172 96 173 174
4 299 300 172 174
4 301 302 171 172
4 302 303 169 171
4 203 169 303 304
4 200 203 304 305
4 301 300 368 375
4 302 301 375 376
4 303 302 376 383
4 304 303 383 384
4 305 304 384 385
4 306 305 385 386
4 126 127 125 122
4 128 129 127 126
4 130 131 129 128
4 132 116 131 130
4 133 115 116 132
4 127 91 90 125
4 129 92 91 127
4 131 93 92 129
4 248 249 250 251
4 252 253 249 248
4 254 255 253 252
4 249 256 257 250
4 253 258 256 249
4 255 259 258 253
4 256 260 261 257
4 258 262 260 256
4 259 263 262 258
4 260 264 265 261
4 262 266 264 260
4 263 267 266 262
4 264 268 269 265
4 266 270 268 264
4 268 271 272 269
4 270 273 271 268
4 274 275 273 270
4 271 276 277 272
4 273 278 276 271
4 275 279 278 273
4 276 280 281 277
4 278 282 280 276
4 279 283 282 278
4 267 274 270 266
4 254 130 128 288
4 130 252 248 132
4 133 132 248 251
4 289 126 122 121
4 288 128 126 289
4 321 320 283 279
4 322 321 279 275
4 323 322 275 274
4 324 323 274 267
4 325 324 267 263
4 326 325 263 259
4 327 326 259 255
4 288 327 255 254
4 376 375 374 377
4 377 374 373 378
4 378 373 372 379
4 379 372 320 321
4 380 379 321 322
4 381 378 379 380
4 382 377 378 381
4 383 376 377 382
4 384 383 382 388
4 385 384 388 389
4 386 385 389 390
4 387 386 390 391
4 393 391 394 395
4 391 390 396 394
4 390 389 397 396
4 389 388 398 397
4 398 381 380 399
4 388 382 381 398
4 397 398 399 400
4 396 397 400 401
4 394 396 401 402
4 395 394 402 403
4 403 402 326 327
4 402 401 325 326
4 401 400 324 325
4 400 399 323 324
4 399 380 322 323
4 289 121 395 403
4 289 403 327 288
4 375 368 369 374
4 300 301 172 172
4 395 121 393 393
4 252 130 254 254
8 54  55  56  57  58  59  60  61
8 40  3  2  41  42  7  6  43
8 58  59  60  61  62  63  64  65
8 62  63  64  65  66  67  68  69
8 44  45  60  59  41  43  64  63
8 41  43  64  63  40  42  68  67
8 44  9  13  46  45  11  15  47
8 46  13  17  48  47  15  19  49
8 50  51  52  53  54  55  56  57
8 48  49  52  51  46  47  56  55
8 46  47  56  55  44  45  60  59
8 41  2  9  44  43  6  11  45
8 8  12  13  9  10  14  15  11
8 12  16  17  13  14  18  19  15
8 20  21  22  23  24  25  26  27
8 24  25  26  27  28  29  30  31
8 16  23  22  18  12  27  26  14
8 12  27  26  14  8  31  30  10
8 0  1  2  3  4  5  6  7
8 1  8  9  2  5  10  11  6
8 28  29  30  31  32  33  34  35
8 32  33  34  35  36  37  38  39
8 8  31  30  10  1  35  34  5
8 1  35  34  5  0  39  38  4

CELL_TYPES 452
3
3
3
3
3
3
3
3
3
3
3
3
3
3
3
3
3
3
3
3
3
3
3
3
3
3
3
3
3
3
3
3
3
3
3
3
3
3
3
3
3
3
3
3
3
3
3
3
3
3
3
3
3
3
3
3
3
3
3
3
3
3
3
3
3
3
3
3
3
3
9
9
9
9
9
9
9
9
9
9
9
9
9
9
9
9
9
9
9
9
9
9
9
9
9
9
9
9
9
9
9
9
9
9
9
9
9
9
9
9
9
9
9
9
9
9
9
9
9
9
9
9
9
9
9
9
9
9
9
9
9
9
9
9
9
9
9
9
9
9
9
9
9
9
9
9
9
9
9
9
9
9
9
9
9
9
9
9
9
5
5
9
9
9
9
9
9
9
9
9
9
9
9
9
9
9
9
9
9
9
9
9
9
9
9
9
9
9
9
9
9
9
9
9
9
9
9
9
9
9
9
9
9
9
9
9
9
9
9
9
9
9
9
9
9
9
9
9
9
9
9
9
9
9
9
9
9
9
9
9
9
9
9
9
9
9
9
9
9
9
9
9
9
9
9
9
9
9
9
9
9
5
9
9
9
9
9
9
9
9
9
9
9
9
9
9
9
9
9
9
9
9
9
9
9
9
9
9
9
9
9
9
9
9
9
9
9
9
9
9
9
9
9
9
9
9
9
9
9
9
9
9
9
9
9
9
9
9
9
9
9
9
9
9
9
9
9
9
9
9
9
9
9
9
9
9
9
9
9
9
9
9
9
9
9
5
5
9
9
9
9
9
9
9
9
9
9
9
9
9
9
9
9
9
9
9
9
9
9
9
9
9
9
9
9
9
9
9
9
9
9
9
9
9
9
9
9
9
9
9
9
9
9
9
9
9
9
9
9
9
9
9
9
9
9
9
9
9
9
9
9
9
9
9
9
9
9
9
9
9
9
9
9
9
9
9
9
9
9
9
9
9
9
9
9
5
5
5
12
12
12
12
12
12
12
12
12
12
12
12
12
12
12
12
12
12
12
12
12
12
12
12

POINT_DATA 450
SCALARS NODE_ID int 1
LOOKUP_TABLE default
1
2
3
4
5
6
7
8
9
10
11
12
13
14
15
16
17
18
19
20
21
22
23
24
25
26
27
28
29
30
31
32
33
34
35
36
37
38
39
40
41
42
43
44
45
46
47
48
49
50
51
52
53
54
55
56
57
58
59
60
61
62
63
64
65
66
67
68
69
70
71
72
73
74
75
76
77
78
79
80
81
82
83
84
85
86
87
88
89
90
91
92
93
94
95
96
97
98
99
100
101
102
103
104
105
106
107
108
109
110
111
112
113
114
115
116
117
118
119
120
121
122
123
124
125
126
127
128
129
130
131
132
133
134
135
136
137
138
139
140
141
142
143
144
145
146
147
148
149
150
151
152
153
154
155
156
157
158
159
160
161
162
163
164
165
166
167
168
169
170
171
172
173
174
175
176
177
178
179
180
181
182
183
184
185
186
187
188
189
190
191
192
193
194
195
196
197
198
199
200
201
202
203
204
205
206
207
208
209
210
211
212
213
214
215
216
217
218
219
220
221
222
223
224
225
226
227
228
229
230
231
232
233
234
235
236
237
238
239
240
241
242
243
244
245
246
247
248
249
250
251
252
253
254
255
256
257
258
259
260
261
262
263
264
265
266
267
268
269
270
271
272
273
274
275
276
277
278
279
280
281
282
283
284
285
286
287
288
289
290
291
292
293
294
295
296
297
298
299
300
301
302
303
304
305
306
307
308
309
310
311
312
313
314
315
316
317
318
319
320
321
322
323
324
325
326
327
328
329
330
331
332
333
334
335
336
337
338
339
340
341
342
343
344
345
346
347
348
349
350
351
352
353
354
355
356
357
358
359
360
361
362
363
364
365
366
367
368
369
370
371
372
373
374
375
376
377
378
379
380
381
382
383
384
385
386
387
388
389
390
391
392
393
394
395
396
397
398
399
400
401
402
403
404
405
406
407
408
409
410
411
412
413
414
415
416
417
418
419
420
421
422
423
424
425
426
427
428
429
430
431
432
433
434
435
436
437
438
439
440
441
442
443
444
445
446
447
448
449
450

SCALARS Mass_Change float 1
LOOKUP_TABLE default
0
0
0
0
0
0
0
0
0
0
0
0
0
0
0
0
0
0
0
0
0
0
0
0
0
0
0
0
0
0
0
0
0
0
0
0
0
0
0
0
0
0
0
0
0
0
0
0
0
0
0
0
0
0
0
0
0
0
0
0
0
0
0
0
0
0
0
0
0
0
0
0
0
0
0
0
0
0
0
0
0
0
0
0
0
0
0
0
0
0
0
0
0
0
0
0
0
0
0
0
0
0
0
0
0
0
0
0
0
0
0
0
0
0
0
0
0
0
0
0
0
0
0
0
0
0
0
0
0
0
0
0
0
0
0
0
0
0
0
0
0
0
0
0
0
0
0
0
0
0
0
0
0
0
0
0
0
0
0
0
0
0
0
0
0
0
0
0
0
0
0
0
0
0
0
0
0
0
0
0
0
0
0
0
0
0
0
0
0
0
0
0
0
0
0
0
0
0
0
0
0
0
0
0
0
0
0
0
0
0
0
0
0
0
0
0
0
0
0
0
0
0
0
0
0
0
0
0
0
0
0
0
0
0
0
0
0
0
0
0
0
0
0
0
0
0
0
0
0
0
0
0
0
0
0
0
0
0
0
0
0
0
0
0
0
0
0
0
0
0
0
0
0
0
0
0
0
0
0
0
0
0
0
0
0
0
0
0
0
0
0
0
0
0
0
0
0
0
0
0
0
0
0
0
0
0
0
0
0
0
0
0
0
0
0
0
0
0
0
0
0
0
0
0
0
0
0
0
0
0
0
0
0
0
0
0
0
0
0
0
0
0
0
0
0
0
0
0
0
0
0
0
0
0
0
0
0
0
0
0
0
0
0
0
0
0
0
0
0
0
0
0
0
0
0
0
0
0
0
0
0
0
0
0
0
0
0
0
0
0
0
0
0
0
0
0
0
0
0
0
0
0
0
0
0
0
0
0
0
0
0
0
0
0
0
0
0
0
0
0
0
0
0
0
0
0
0
0
0
0
0
0
0
0
0
0
0
0
0
0
0
0
0
0
0
0
0
0
0
0

VECTORS Contact_Forces float
0 0 0
0 0 0
0 0 0
0 0 0
0 0 0
0 0 0
0 0 0
0 0 0
0 0 0
0 0 0
0 0 0
0 0 0
0 0 0
0 0 0
0 0 0
0 0 0
0 0 0
0 0 0
0 0 0
0 0 0
0 0 0
0 0 0
0 0 0
0 0 0
0 0 0
0 0 0
0 0 0
0 0 0
0 0 0
0 0 0
0 0 0
0 0 0
0 0 0
0 0 0
0 0 0
0 0 0
0 0 0
0 0 0
0 0 0
0 0 0
0 0 0
0 0 0
0 0 0
0 0 0
0 0 0
0 0 0
0 0 0
0 0 0
0 0 0
0 0 0
0 0 0
0 0 0
0 0 0
0 0 0
0 0 0
0 0 0
0 0 0
0 0 0
0 0 0
0 0 0
0 0 0
0 0 0
0 0 0
0 0 0
0 0 0
0 0 0
0 0 0
0 0 0
0 0 0
0 0 0
0 0 0
0 0 0
0 0 0
0 0 0
0 0 0
0 0 0
0 0 0
0 0 0
0 0 0
0 0 0
0 0 0
0 0 0
0 0 0
0 0 0
0 0 0
0 0 0
0 0 0
0 0 0
0 0 0
0 0 0
0 0 0
0 0 0
0 0 0
0 0 0
0 0 0
0 0 0
0 0 0
0 0 0
0 0 0
0 0 0
0 0 0
0 0 0
0 0 0
0 0 0
0 0 0
0 0 0
0 0 0
0 0 0
0 0 0
0 0 0
0 0 0
0 0 0
0 0 0
0 0 0
0 0 0
0 0 0
0 0 0
0 0 0
0 0 0
0 0 0
0 0 0
0 0 0
0 0 0
0 0 0
0 0 0
0 0 0
0 0 0
0 0 0
0 0 0
0 0 0
0 0 0
0 0 0
0 0 0
0 0 0
0 0 0
0 0 0
0 0 0
0 0 0
0 0 0
0 0 0
0 0 0
0 0 0
0 0 0
0 0 0
0 0 0
0 0 0
0 0 0
0 0 0
0 0 0
0 0 0
0 0 0
0 0 0
0 0 0
0 0 0
0 0 0
0 0 0
0 0 0
0 0 0
0 0 0
0 0 0
0 0 0
0 0 0
0 0 0
0 0 0
0 0 0
0 0 0
0 0 0
0 0 0
0 0 0
0 0 0
0 0 0
0 0 0
0 0 0
0 0 0
0 0 0
0 0 0
0 0 0
0 0 0
0 0 0
0 0 0
0 0 0
0 0 0
0 0 0
0 0 0
0 0 0
0 0 0
0 0 0
0 0 0
0 0 0
0 0 0
0 0 0
0 0 0
0 0 0
0 0 0
0 0 0
0 0 0
0 0 0
0 0 0
0 0 0
0 0 0
0 0 0
0 0 0
0 0 0
0 0 0
0 0 0
0 0 0
0 0 0
0 0 0
0 0 0
0 0 0
0 0 0
0 0 0
0 0 0
0 0 0
0 0 0
0 0 0
0 0 0
0 0 0
0 0 0
0 0 0
0 0 0
0 0 0
0 0 0
0 0 0
0 0 0
0 0 0
0 0 0
0 0 0
0 0 0
0 0 0
0 0 0
0 0 0
0 0 0
0 0 0
0 0 0
0 0 0
0 0 0
0 0 0
0 0 0
0 0 0
0 0 0
0 0 0
0 0 0
0 0 0
0 0 0
0 0 0
0 0 0
0 0 0
0 0 0
0 0 0
0 0 0
0 0 0
0 0 0
0 0 0
0 0 0
0 0 0
0 0 0
0 0 0
0 0 0
0 0 0
0 0 0
0 0 0
0 0 0
0 0 0
0 0 0
0 0 0
0 0 0
0 0 0
0 0 0
0 0 0
0 0 0
0 0 0
0 0 0
0 0 0
0 0 0
0 0 0
0 0 0
0 0 0
0 0 0
0 0 0
0 0 0
0 0 0
0 0 0
0 0 0
0 0 0
0 0 0
0 0 0
0 0 0
0 0 0
0 0 0
0 0 0
0 0 0
0 0 0
0 0 0
0 0 0
0 0 0
0 0 0
0 0 0
0 0 0
0 0 0
0 0 0
0 0 0
0 0 0
0 0 0
0 0 0
0 0 0
0 0 0
0 0 0
0 0 0
0 0 0
0 0 0
0 0 0
0 0 0
0 0 0
0 0 0
0 0 0
0 0 0
0 0 0
0 0 0
0 0 0
0 0 0
0 0 0
0 0 0
0 0 0
0 0 0
0 0 0
0 0 0
0 0 0
0 0 0
0 0 0
0 0 0
0 0 0
0 0 0
0 0 0
0 0 0
0 0 0
0 0 0
0 0 0
0 0 0
0 0 0
0 0 0
0 0 0
0 0 0
0 0 0
0 0 0
0 0 0
0 0 0
0 0 0
0 0 0
0 0 0
0 0 0
0 0 0
0 0 0
0 0 0
0 0 0
0 0 0
0 0 0
0 0 0
0 0 0
0 0 0
0 0 0
0 0 0
0 0 0
0 0 0
0 0 0
0 0 0
0 0 0
0 0 0
0 0 0
0 0 0
0 0 0
0 0 0
0 0 0
0 0 0
0 0 0
0 0 0
0 0 0
0 0 0
0 0 0
0 0 0
0 0 0
0 0 0
0 0 0
0 0 0
0 0 0
0 0 0
0 0 0
0 0 0
0 0 0
0 0 0
0 0 0
0 0 0
0 0 0
0 0 0
0 0 0
0 0 0
0 0 0
0 0 0
0 0 0
0 0 0
0 0 0
0 0 0
0 0 0
0 0 0
0 0 0
0 0 0
0 0 0
0 0 0
0 0 0
0 0 0
0 0 0
0 0 0
0 0 0
0 0 0
0 0 0
0 0 0
0 0 0
0 0 0
0 0 0
0 0 0
0 0 0
0 0 0
0 0 0
0 0 0
0 0 0
0 0 0
0 0 0
0 0 0
0 0 0
0 0 0
0 0 0
0 0 0
0 0 0
0 0 0
0 0 0
0 0 0
0 0 0
0 0 0
0 0 0
0 0 0
0 0 0
0 0 0
0 0 0
0 0 0
0 0 0
0 0 0
0 0 0
0 0 0
0 0 0
0 0 0

CELL_DATA 452
SCALARS ELEMENT_ID int 1
LOOKUP_TABLE default
0
0
0
0
0
0
0
0
0
0
0
0
0
0
0
0
0
0
0
0
0
0
0
0
0
0
0
0
0
0
0
0
0
0
0
0
0
0
0
0
0
0
0
0
0
0
0
0
0
0
0
0
0
0
0
0
0
0
0
0
0
0
0
0
0
0
0
0
0
0
50
65
25
27
28
29
30
31
32
35
36
37
38
39
47
48
49
80
89
108
111
112
123
124
125
126
127
128
129
130
131
153
154
190
191
192
193
208
209
210
211
229
230
231
232
233
234
235
236
237
238
239
240
241
242
132
133
134
135
136
137
138
139
142
152
194
212
213
214
215
243
244
245
246
247
248
249
250
251
252
253
254
255
256
257
259
260
261
262
359
363
380
178
179
180
220
283
284
285
26
33
34
67
69
70
71
72
74
75
76
77
78
79
81
82
83
84
85
88
90
91
92
102
103
105
106
107
109
110
66
68
73
99
100
101
113
140
141
143
144
145
146
147
148
149
150
151
181
182
183
195
196
197
198
216
217
218
219
258
263
264
265
266
267
268
269
270
271
272
273
274
275
276
277
278
279
280
281
282
378
379
361
40
41
42
43
44
45
46
86
87
93
96
104
114
115
116
117
118
119
120
121
122
204
205
206
207
301
306
323
327
328
329
330
331
332
333
334
335
336
337
338
339
340
341
342
343
344
345
346
347
348
349
350
351
352
353
354
355
364
365
366
367
368
369
370
371
372
373
374
375
376
377
381
382
51
52
53
54
307
324
60
61
94
95
356
357
97
98
199
200
201
202
203
287
288
297
298
299
300
55
56
57
58
59
62
63
64
155
156
157
158
159
160
161
162
163
164
165
166
167
168
169
170
171
172
173
174
175
176
177
184
185
186
187
188
189
221
222
223
224
225
226
227
228
289
290
291
292
293
294
295
296
302
303
304
305
308
309
310
311
312
313
314
315
316
317
318
319
320
321
322
325
326
286
360
358
362
18
13
19
20
23
24
15
16
17
21
22
14
3
4
5
6
9
10
1
2
7
8
11
12

SCALARS PART_ID int 1
LOOKUP_TABLE default
1
1
1
1
1
1
1
1
1
1
1
1
1
1
1
1
1
1
1
1
1
1
1
1
1
1
1
1
1
1
1
1
1
1
1
1
1
1
1
1
1
1
1
1
1
1
1
1
1
1
1
1
1
1
1
1
1
1
1
1
1
1
1
1
1
1
1
1
1
1
2
2
2
2
2
2
2
2
2
2
2
2
2
2
2
2
2
2
2
2
2
2
2
2
2
2
2
2
2
2
2
2
2
2
2
2
2
2
2
2
2
2
2
2
2
2
2
2
2
2
2
2
2
2
2
2
2
2
2
2
2
2
2
2
2
2
2
2
2
2
2
2
2
2
2
2
2
2
2
2
2
2
2
2
2
2
2
2
2
2
2
2
2
2
2
2
2
2
2
2
2
2
2
2
2
2
2
2
2
2
2
2
2
2
2
2
2
2
2
2
2
2
2
2
2
2
2
2
2
2
2
2
2
2
2
2
2
2
2
2
2
2
2
2
2
2
2
2
2
2
2
2
2
2
2
2
2
2
2
2
2
2
2
2
2
2
2
2
2
2
2
2
2
2
2
2
2
2
2
2
2
2
2
2
2
2
2
2
2
2
2
2
2
2
2
2
2
2
2
2
2
2
2
2
2
2
2
2
2
2
2
2
2
2
2
2
2
2
2
2
2
2
2
2
2
2
2
2
2
2
2
2
2
2
2
2
2
2
2
2
2
2
2
2
2
2
2
2
2
2
2
2
2
2
2
2
2
2
2
2
2
2
2
2
2
2
2
2
2
2
2
2
2
2
2
2
2
2
2
2
2
2
2
2
2
2
2
2
2
2
2
2
2
2
2
2
2
2
2
2
2
2
2
2
2
2
2
2
2
2
2
2
2
2
2
2
2
2
2
2
2
2
2
2
2
2
2
2
2
2
2
2
2
2
2
2
2
2
2
2
2
2
2
2
2
2
2
2
2
2
2
2
2
2
2
2
2
2
1
1
1
1
1
1
1
1
1
1
1
1
1
1
1
1
1
1
1
1
1
1
1
1

SCALARS EROSION_STATUS int 1
LOOKUP_TABLE default
1
1
1
1
1
1
1
1
1
1
1
1
1
1
1
1
1
1
1
1
1
1
1
1
1
1
1
1
1
1
1
1
1
1
1
1
1
1
1
1
1
1
1
1
1
1
1
1
1
1
1
1
1
1
1
1
1
1
1
1
1
1
1
1
1
1
1
1
1
1
1
1
1
1
1
1
1
1
1
1
1
1
1
1
1
1
1
1
1
1
1
1
1
1
1
1
1
1
1
1
1
1
1
1
1
1
1
1
1
1
1
1
1
1
1
1
1
1
1
1
1
1
1
1
1
1
1
1
1
1
1
1
1
1
1
1
1
1
1
1
1
1
1
1
1
1
1
1
1
1
1
1
1
1
1
1
1
1
1
1
1
1
1
1
1
1
1
1
1
1
1
1
1
1
1
1
1
1
1
1
1
1
1
1
1
1
1
1
1
1
1
1
1
1
1
1
1
1
1
1
1
1
1
1
1
1
1
1
1
1
1
1
1
1
1
1
1
1
1
1
1
1
1
1
1
1
1
1
1
1
1
1
1
1
1
1
1
1
1
1
1
1
1
1
1
1
1
1
1
1
1
1
1
1
1
1
1
1
1
1
1
1
1
1
1
1
1
1
1
1
1
1
1
1
1
1
1
1
1
1
1
1
1
1
1
1
1
1
1
1
1
1
1
1
1
1
1
1
1
1
1
1
1
1
1
1
1
1
1
1
1
1
1
1
1
1
1
1
1
1
1
1
1
1
1
1
1
1
1
1
1
1
1
1
1
1
1
1
1
1
1
1
1
1
1
1
1
1
1
1
1
1
1
1
1
1
1
1
1
1
1
1
1
1
1
1
1
1
1
1
1
1
1
1
1
1
1
1
1
1
1
1
1
1
1
1
1
1
1
1
1
1
1
1
1
1
1
1
1
1
1
1
1
1
1
1
1
1
1
1
1
1
1
1
1
1
1
1
1
1
1
1
1
1
1
1
1
1
0
0
0
0
0
0
0
0
0
0
0
0
0
0
0
0
0
0
0
0
0
0
0
0

SCALARS 1DELEM_Specific_Energy float 1
LOOKUP_TABLE default
0
0
0
0
0
0
0
0
0
0
0
0
0
0
0
0
0
0
0
0
0
0
0
0
0
0
0
0
0
0
0
0
0
0
0
0
0
0
0
0
0
0
0
0
0
0
0
0
0
0
0
0
0
0
0
0
0
0
0
0
0
0
0
0
0
0
0
0
0
0
0
0
0
0
0
0
0
0
0
0
0
0
0
0
0
0
0
0
0
0
0
0
0
0
0
0
0
0
0
0
0
0
0
0
0
0
0
0
0
0
0
0
0
0
0
0
0
0
0
0
0
0
0
0
0
0
0
0
0
0
0
0
0
0
0
0
0
0
0
0
0
0
0
0
0
0
0
0
0
0
0
0
0
0
0
0
0
0
0
0
0
0
0
0
0
0
0
0
0
0
0
0
0
0
0
0
0
0
0
0
0
0
0
0
0
0
0
0
0
0
0
0
0
0
0
0
0
0
0
0
0
0
0
0
0
0
0
0
0
0
0
0
0
0
0
0
0
0
0
0
0
0
0
0
0
0
0
0
0
0
0
0
0
0
0
0
0
0
0
0
0
0
0
0
0
0
0
0
0
0
0
0
0
0
0
0
0
0
0
0
0
0
0
0
0
0
0
0
0
0
0
0
0
0
0
0
0
0
0
0
0
0
0
0
0
0
0
0
0
0
0
0
0
0
0
0
0
0
0
0
0
0
0
0
0
0
0
0
0
0
0
0
0
0
0
0
0
0
0
0
0
0
0
0
0
0
0
0
0
0
0
0
0
0
0
0
0
0
0
0
0
0
0
0
0
0
0
0
0
0
0
0
0
0
0
0
0
0
0
0
0
0
0
0
0
0
0
0
0
0
0
0
0
0
0
0
0
0
0
0
0
0
0
0
0
0
0
0
0
0
0
0
0
0
0
0
0
0
0
0
0
0
0
0
0
0
0
0
0
0
0
0
0
0
0
0
0
0
0
0
0
0
0
0
0
0
0
0
0
0
0
0
0
0
0
0
0
0
0
0
0
0
0
0
0
0
0
0
0
0
0
0

SCALARS 1DELEM_Von_Mises float 1
LOOKUP_TABLE default
0
0
0
0
0
0
0
0
0
0
0
0
0
0
0
0
0
0
0
0
0
0
0
0
0
0
0
0
0
0
0
0
0
0
0
0
0
0
0
0
0
0
0
0
0
0
0
0
0
0
0
0
0
0
0
0
0
0
0
0
0
0
0
0
0
0
0