# vtk DataFile Version 3.0
vtk output
ASCII
DATASET UNSTRUCTURED_GRID
FIELD FieldData 2
TIME 1 1 double
0
CYCLE 1 1 int
0
POINTS 979 float
25.3994 0.000487488 -4.71497e-05
25.3995 3.17442 0.000872131
25.4006 6.34995 -3.95203e-05
25.3996 9.52461 0.000742798
25.4009 12.6993 0.000120941
25.4009 15.8754 -0.000665344
25.3997 19.0497 -0.000296234
25.3993 0.000477142 3.1714
25.3998 3.1745 3.17088
25.4005 6.35067 3.17247
25.4004 9.52466 3.17249
25.3998 12.7003 3.17238
25.4005 15.8758 3.17252
25.399 19.0496 3.17196
25.4002 -0.000367554 6.34374
25.4 3.17497 6.34309
25.3998 6.35 6.34332
25.3996 9.52485 6.34344
25.3991 12.7004 6.34335
25.3993 15.8741 6.34394
25.4009 19.0495 6.34456
25.3999 -5.58777e-05 9.51543
25.3997 3.17412 9.51535
25.3996 6.34984 9.51532
25.3995 9.52422 9.51552
25.4001 12.6992 9.51499
25.4009 15.8743 9.51477
25.3993 19.0505 9.51465
25.4001 0.000678284 12.6884
25.4009 3.17452 12.6873
25.4004 6.34951 12.6867
25.3993 9.52535 12.6873
25.3994 12.7004 12.6877
25.3993 15.874 12.6884
25.4002 19.0499 12.687
25.401 0.000727997 15.8596
25.4006 3.17433 15.8583
25.3992 6.35066 15.8585
25.4007 9.52508 15.8598
25.4003 12.6997 15.8583
25.3996 15.8757 15.8601
25.4005 19.0495 15.8588
25.399 -0.000628906 19.0322
25.3996 3.1749 19.0304
25.4005 6.35084 19.0308
25.3999 9.52463 19.0306
25.4007 12.7001 19.0313
25.3999 15.8752 19.0317
25.4003 19.0496 19.0311
25.4007 -0.000940765 22.2036
25.3997 3.17577 22.2028
25.4005 6.35033 22.2021
25.4001 9.52544 22.2039
25.4005 12.7007 22.2026
25.4007 15.8756 22.2032
25.3994 19.0501 22.2026
25.3999 0.00036322 25.3748
25.3994 3.17472 25.3741
25.4006 6.34946 25.3751
25.4009 9.52527 25.374
25.3997 12.6994 25.3759
25.4001 15.8749 25.3759
25.401 19.0491 25.3758
25.4 -0.000300446 28.5461
25.4005 3.17497 28.5474
25.3998 6.34983 28.5474
25.3999 9.52569 28.547
25.4 12.7 28.5473
25.3995 15.8759 28.5469
25.4001 19.0498 28.5475
25.3998 0.000963257 31.7192
25.4009 3.17412 31.7178
25.4004 6.3498 31.7194
25.3991 9.52464 31.7188
25.3997 12.6997 31.7191
25.3991 15.8746 31.7192
25.3997 19.0503 31.7194
25.3995 0.000691925 34.8909
25.3993 3.1741 34.8899
25.3994 6.35067 34.8909
25.4 9.5241 34.891
25.4005 12.6994 34.8896
25.4005 15.8747 34.8916
25.3994 19.0495 34.8911
25.4006 0.000886047 38.0634
25.3997 3.17551 38.0633
25.3999 6.35089 38.0621
25.4008 9.52561 38.0624
25.3993 12.6991 38.0623
25.3994 15.8742 38.063
25.4004 19.05 38.0626
25.4001 0.000110565 41.234
25.4004 3.17475 41.2333
25.4 6.34965 41.2339
25.3997 9.5246 41.2339
25.4003 12.6992 41.2337
25.4007 15.874 41.2335
25.4009 19.0496 41.2342
25.3997 2.68555e-06 44.4062
25.4006 3.17434 44.4054
25.3995 6.35022 44.4054
25.3996 9.52535 44.406
25.401 12.7005 44.4058
25.3991 15.8755 44.4061
25.4004 19.0503 44.407
25.4003 0.000810944 47.5784
25.4006 3.17568 47.5771
25.4001 6.34958 47.5786
25.3999 9.52453 47.578
25.3997 12.7009 47.5789
25.4 15.8757 47.5778
25.4006 19.0491 47.5788
25.4007 9.05151e-05 50.751
25.4009 3.17584 50.7491
25.3994 6.34939 50.7494
25.3998 9.52407 50.7506
25.4001 12.701 50.7491
25.3996 15.8744 50.7497
25.3991 19.0496 50.7503
25.3998 -0.000820221 53.9208
25.3999 3.17453 53.9217
25.3999 6.35007 53.9213
25.4003 9.52439 53.9211
25.399 12.7001 53.9227
25.4002 15.8746 53.9211
25.4005 19.0503 53.9217
25.4005 0.00058313 57.0933
25.4002 3.17578 57.0938
25.4001 6.34994 57.0935
25.4006 9.52574 57.0945
25.3996 12.6999 57.0947
25.4009 15.8757 57.0944
25.4006 19.049 57.0942
25.3997 -0.00011496 60.2661
25.4003 3.17561 60.2654
25.401 6.35026 60.2649
25.3996 9.52559 60.2666
25.4002 12.6991 60.2657
25.3996 15.8752 60.2663
25.4008 19.0495 60.2647
25.3993 0.000320374 63.4367
25.4005 3.17519 63.4384
25.4009 6.34906 63.4367
25.3993 9.52488 63.4372
25.4006 12.7007 63.4372
25.3999 15.8743 63.4383
25.4004 19.0495 63.4384
25.3999 0.000625946 66.6087
25.4008 3.17565 66.6088
25.4 6.34957 66.6096
25.4005 9.52417 66.6093
25.4005 12.6999 66.61
25.3995 15.8744 66.6094
25.3991 19.0498 66.6094
25.4003 -0.00070166 69.7807
25.3995 3.17516 69.782
25.3992 6.34932 69.7808
25.3996 9.52527 69.7811
25.3994 12.7002 69.7818
25.3998 15.8754 69.7807
25.4005 19.0503 69.7818
25.4009 0.000882965 72.9524
25.3997 3.1755 72.9521
25.4008 6.35045 72.9538
25.4008 9.5246 72.953
25.4005 12.7005 72.954
25.3998 15.8743 72.9522
25.4004 19.0499 72.9524
25.3998 0.000419373 76.1243
25.4006 3.17553 76.1246
25.4007 6.35048 76.1246
25.3991 9.52475 76.1253
25.3998 12.7007 76.1256
25.3999 15.8755 76.1257
25.3999 19.0499 76.1248
25.3997 0.000667816 79.2962
25.3997 3.17594 79.2973
25.3995 6.34913 79.297
25.3995 9.52551 79.2963
25.3996 12.7003 79.2975
25.4006 15.8749 79.2968
25.3991 19.0507 79.2972
25.4 -0.000757935 82.4696
25.4008 3.1757 82.4697
25.4004 6.3492 82.4692
25.4009 9.52592 82.4691
25.4005 12.6998 82.4696
25.3996 15.8753 82.468
25.3993 19.0504 82.4688
25.3994 -0.000726532 85.64
25.4004 3.17542 85.6414
25.401 6.35036 85.64
25.4001 9.52542 85.6401
25.3999 12.7001 85.6401
25.3999 15.8746 85.6408
25.4003 19.0501 85.64
25.4002 -0.000268738 88.812
25.3999 3.17532 88.8134
25.3994 6.35076 88.812
25.3995 9.52491 88.8124
25.3992 12.6999 88.8122
25.3997 15.874 88.8131
25.3999 19.0492 88.8121
25.399 2.41394e-05 91.9844
25.3995 3.17577 91.9845
25.4 6.3502 91.9844
25.399 9.52452 91.9838
25.3997 12.6996 91.9839
25.3998 15.8757 91.9838
25.3998 19.0499 91.9835
25.4008 8.05664e-06 95.1554
25.4009 3.17511 95.1569
25.3995 6.35091 95.1568
25.4009 9.52414 95.1564
25.3997 12.6999 95.1572
25.4007 15.8745 95.1561
25.4003 19.0504 95.1572
25.3993 -0.000974701 98.3284
25.4008 3.17598 98.3276
25.3993 6.35071 98.3286
25.4005 9.52439 98.3289
25.3998 12.6994 98.3287
25.3996 15.8742 98.3282
25.3998 19.0502 98.3281
25.4008 9.97925e-05 101.5
25.3994 3.17554 101.499
25.4002 6.34949 101.501
25.3995 9.52506 101.501
25.4006 12.6995 101.499
25.3999 15.8741 101.501
25.3991 19.0507 101.499
25.4003 -8.63342e-05 104.67
25.3997 3.17596 104.671
25.3995 6.35075 104.67
25.3992 9.52579 104.672
25.4006 12.7004 104.672
25.4003 15.8753 104.671
25.4007 19.0508 104.67
25.4003 -0.000309937 107.843
25.3993 3.17562 107.844
25.3991 6.3503 107.844
25.4007 9.52491 107.843
25.4002 12.7001 107.843
25.3999 15.8749 107.842
25.3996 19.0494 107.842
25.3992 0.000607208 111.015
25.3995 3.17427 111.015
25.4002 6.35072 111.014
25.3994 9.52436 111.015
25.4003 12.7003 111.015
25.3992 15.8757 111.014
25.4007 19.0491 111.015
25.4008 -0.000131287 114.187
25.4008 3.17565 114.186
25.4009 6.35076 114.187
25.4002 9.52544 114.186
25.4007 12.6994 114.187
25.3996 15.875 114.188
25.4007 19.0498 114.187
25.4002 5.51453e-05 117.36
25.4003 3.17587 117.36
25.4006 6.34926 117.359
25.4009 9.52441 117.359
25.4006 12.7 117.358
25.3993 15.8746 117.36
25.3998 19.0494 117.359
25.4007 0.000881836 120.532
25.3998 3.17595 120.531
25.4001 6.34971 120.531
25.4 9.5257 120.531
25.3996 12.7005 120.531
25.4006 15.8747 120.531
25.3995 19.0493 120.531
25.4002 0.000987946 123.703
25.3997 3.17588 123.703
25.4005 6.3501 123.704
25.4007 9.52466 123.703
25.4002 12.6992 123.704
25.3994 15.8741 123.703
25.3994 19.0498 123.703
25.3996 -0.000118225 126.875
25.4 3.17562 126.876
25.3998 6.34916 126.875
25.3997 9.52476 126.876
25.4003 12.7 126.875
25.4004 15.8739 126.875
25.4004 19.0508 126.875
25.4003 0.000667328 130.045
25.3997 3.17533 130.047
25.4005 6.3507 130.046
25.3992 9.52598 130.047
25.4006 12.7002 130.045
25.401 15.8748 130.047
25.3999 19.0503 130.047
25.4009 0.000677124 133.218
25.4006 3.17531 133.217
25.4001 6.35 133.218
25.4008 9.52447 133.218
25.4003 12.6996 133.218
25.4006 15.8745 133.217
25.3992 19.0505 133.218
25.3999 -0.000363739 136.39
25.3991 3.1749 136.389
25.3995 6.34908 136.39
25.3991 9.52515 136.389
25.4003 12.6992 136.39
25.3993 15.8751 136.389
25.4007 19.0502 136.39
25.399 -0.000517273 139.561
25.3998 3.17592 139.561
25.3994 6.34979 139.562
25.4002 9.52423 139.562
25.4009 12.7 139.561
25.4003 15.875 139.562
25.4004 19.0501 139.562
25.4003 0.000468964 142.734
25.4008 3.17469 142.733
25.4006 6.35053 142.734
25.3999 9.5246 142.735
25.4 12.699 142.734
25.3997 15.8758 142.734
25.3999 19.0504 142.734
25.3999 0.000669678 145.906
25.4007 3.17542 145.906
25.4009 6.3505 145.907
25.3998 9.5257 145.905
25.401 12.7006 145.907
25.4002 15.8756 145.907
25.3999 19.0499 145.907
25.4004 0.000520905 149.077
25.4001 3.17594 149.079
25.401 6.35037 149.078
25.3993 9.52416 149.078
25.4005 12.6997 149.078
25.4007 15.8748 149.078
25.4 19.0504 149.077
25.3997 0.00051532 152.251
25.3991 3.17552 152.249
25.3991 6.35025 152.249
25.4005 9.52559 152.251
25.4005 12.7009 152.25
25.4 15.8747 152.25
25.3995 19.0509 152.25
25.4006 0.000678803 155.421
25.3993 3.1748 155.421
25.3992 6.35072 155.421
25.3992 9.52484 155.422
25.4006 12.6993 155.42
25.4005 15.8739 155.422
25.3995 19.0491 155.421
25.3996 0.000953247 158.594
25.3993 3.1745 158.594
25.401 6.34906 158.593
25.4 9.52436 158.594
25.4007 12.701 158.592
25.4003 15.8757 158.593
25.3998 19.0507 158.592
25.4003 0.000110626 161.764
25.3992 3.17408 161.766
25.3994 6.3492 161.765
25.4009 9.52454 161.765
25.4007 12.7007 161.765
25.3999 15.8758 161.765
25.399 19.0492 161.766
25.4006 -0.000676697 164.937
25.3997 3.17589 164.936
25.4005 6.35062 164.936
25.4001 9.52503 164.937
25.3995 12.7005 164.937
25.4005 15.8759 164.937
25.401 19.0508 164.938
25.4 -0.000984406 168.109
25.399 3.17499 168.108
25.4008 6.34974 168.109
25.3998 9.52582 168.109
25.4006 12.7002 168.109
25.4009 15.8741 168.108
25.4008 19.0504 168.109
25.4001 0.000121582 171.28
25.4004 3.17527 171.281
25.3994 6.35001 171.281
25.401 9.5259 171.28
25.3994 12.7009 171.28
25.4003 15.875 171.281
25.3993 19.0508 171.281
25.4007 -0.000625824 174.454
25.3997 3.17491 174.454
25.3996 6.34928 174.454
25.3999 9.52564 174.452
25.3995 12.7006 174.454
25.3995 15.8751 174.453
25.4003 19.0497 174.454
25.3991 0.000750427 177.626
25.3995 3.17499 177.624
25.3999 6.34949 177.624
25.4007 9.5253 177.625
25.401 12.6991 177.625
25.3995 15.8741 177.626
25.4004 19.0498 177.625
25.3998 -0.00030191 180.796
25.4004 3.17512 180.796
25.4005 6.35055 180.795
25.401 9.52512 180.795
25.3991 12.6996 180.796
25.4007 15.8756 180.797
25.4003 19.0507 180.795
[...]
POINT_DATA 979
SCALARS NODE_ID int 1
LOOKUP_TABLE default
1
2
3
4
5
6
7
8
9
10
11
12
13
14
15
16
17
18
19
20
21
22
23
24
25
26
27
28
29
30
31
32
33
34
35
36
37
38
39
40
41
42
43
44
45
46
47
48
49
50
51
52
53
54
55
56
57
58
59
60
61
62
63
64
65
66
67
68
69
70
71
72
73
74
75
76
77
78
79
80
81
82
83
84
85
86
87
88
89
90
91
92
93
94
95
96
97
98
99
100
101
102
103
104
105
106
107
108
109
110
111
112
113
114
115
116
117
118
119
120
121
122
123
124
125
126
127
128
129
130
131
132
133
134
135
136
137
138
139
140
141
142
143
144
145
146
147
148
149
150
151
152
153
154
155
156
157
158
159
160
161
162
163
164
165
166
167
168
169
170
171
172
173
174
175
176
177
178
179
180
181
182
183
184
185
186
187
188
189
190
191
192
193
194
195
196
197
198
199
200
201
202
203
204
205
206
207
208
209
210
211
212
213
214
215
216
217
218
219
220
221
222
223
224
225
226
227
228
229
230
231
232
233
234
235
236
237
238
239
240
241
242
243
244
245
246
247
248
249
250
251
252
253
254
255
256
257
258
259
260
261
262
263
264
265
266
267
268
269
270
271
272
273
274
275
276
277
278
279
280
281
282
283
284
285
286
287
288
289
290
291
292
293
294
295
296
297
298
299
300
301
302
303
304
305
306
307
308
309
310
311
312
313
314
315
316
317
318
319
320
321
322
323
324
325
326
327
328
329
330
331
332
333
334
335
336
337
338
339
340
341
342
343
344
345
346
347
348
349
350
351
352
353
354
355
356
357
358
359
360
361
362
363
364
365
366
367
368
369
370
371
372
373
374
375
376
377
378
379
380
381
382
383
384
385
386
387
388
389
390
391
392
393
394
395
396
397
398
399
400
401
402
403
404
405
406
407
408
409
410
411
412
413
414
415
416
417
418
419
420
421
422
423
424
425
426
427
428
429
430
431
432
433
434
435
436
437
438
439
440
441
442
443
444
445
446
447
448
449
450
451
452
453
454
455
456
457
458
459
460
461
462
463
464
465
466
467
468
469
470
471
472
473
474
475
476
477
478
479
480
481
482
483
484
485
486
487
488
489
490
491
492
493
494
495
496
497
498
499
500
501
502
503
504
505
506
507
508
509
510
511
512
513
514
515
516
517
518
519
520
521
522
523
524
525
526
527
528
529
530
531
532
533
534
535
536
537
538
539
540
541
542
543
544
545
546
547
548
549
550
551
552
553
554
555
556
557
558
559
560
561
562
563
564
565
566
567
568
569
570
571
572
573
574
575
576
577
578
579
580
581
582
583
584
585
586
587
588
589
590
591
592
593
594
595
596
597
598
599
600
601
602
603
604
605
606
607
608
609
610
611
612
613
614
615
616
617
618
619
620
621
622
623
624
625
626
627
628
629
630
631
632
633
634
635
636
637
638
639
640
641
642
643
644
645
646
647
648
649
650
651
652
653
654
655
656
657
658
659
660
661
662
663
664
665
666
667
668
669
670
671
672
673
674
675
676
677
678
679
680
681
682
683
684
685
686
687
688
689
690
691
692
693
694
695
696
697
698
699
700
701
702
703
704
705
706
707
708
709
710
711
712
713
714
715
716
717
718
719
720
721
722
723
724
725
726
727
728
729
730
731
732
733
734
735
736
737
738
739
740
741
742
743
744
745
746
747
748
749
750
751
752
753
754
755
756
757
758
759
760
761
762
763
764
765
766
767
768
769
770
771
772
773
774
775
776
777
778
779
780
781
782
783
784
785
786
787
788
789
790
791
792
793
794
795
796
797
798
799
800
801
802
803
804
805
806
807
808
809
810
811
812
813
814
815
816
817
818
819
820
821
822
823
824
825
826
827
828
829
830
831
832
833
834
835
836
837
838
839
840
841
842
843
844
845
846
847
848
849
850
851
852
853
854
855
856
857
858
859
860
861
862
863
864
865
866
867
868
869
870
871
872
873
874
875
876
877
878
879
880
881
882
883
884
885
886
887
888
889
890
891
892
893
894
895
896
897
898
899
900
901
902
903
904
905
906
907
908
909
910
911
912
913
914
915
916
917
918
919
920
921
922
923
924
925
926
927
928
929
930
931
932
933
934
935
936
937
938
939
940
941
942
943
944
945
946
947
948
949
950
951
952
953
954
955
956
957
958
959
960
961
962
963
964
965
966
967
968
969
970
971
972
973
974
975
987
988
989
990

SCALARS Mass_Change float 1
LOOKUP_TABLE default
0
0
0
0
0
0
0
0
0
0
0
0
0
0
0
0
0
0
0
0
0
0
0
0
0
0
0
0
0
0
0
0
0
0
0
0
0
0
0
0
0
0
0
0
0
0
0
0
0
0
0
0
0
0
0
0
0
0
0
0
0
0
0
0
0
0
0
0
0
0
0
0
0
0
0
0
0
0
0
0
0
0
0
0
0
0
0
0
0
0
0
0
0
0
0
0
0
0
0
0
0
0
0
0
0
0
0
0
0
0
0
0
0
0
0
0
0
0
0
0
0
0
0
0
0
0
0
0
0
0
0
0
0
0
0
0
0
0
0
0
0
0
0
0
0
0
0
0
0
0
0
0
0
0
0
0
0
0
0
0
0
0
0
0
0
0
0
0
0
0
0
0
0
0
0
0
0
0
0
0
0
0
0
0
0
0
0
0
0
0
0
0
0
0
0
0
0
0
0
0
0
0
0
0
0
0
0
0
0
0
0
0
0
0
0
0
0
0
0
0
0
0
0
0
0
0
0
0
0
0
0
0
0
0
0
0
0
0
0
0
0
0
0
0
0
0
0
0
0
0
0
0
0
0
0
0
0
0
0
0
0
0
0
0
0
0
0
0
0
0
0
0
0
0
0
0
0
0
0
0
0
0
0
0
0
0
0
0
0
0
0
0
0
0
0
0
0
0
0
0
0
0
0
0
0
0
0
0
0
0
0
0
0
0
0
0
0
0
0
0
0
0
0
0
0
0
0
0
0
0
0
0
0
0
0
0
0
0
0
0
0
0
0
0
0
0
0
0
0
0
0
0
0
0
0
0
0
0
0
0
0
0
0
0
0
0
0
0
0
0
0
0
0
0
0
0
0
0
0
0
0
0
0
0
0
0
0
0
0
0
0
0
0
0
0
0
0
0
0
0
0
0
0
0
0
0
0
0
0
0
0
0
0
0
0
0
0
0
0
0
0
0
0
0
0
0
0
0
0
0
0
0
0
0
0
0
0
0
0
0
0
0
0
0
0
0
0
0
0
0
0
0
0
0
0
0
0
0
0
0
0
0
0
0
0
0
0
0
0
0
0
0
0
0
0
0
0
0
0
0
0
0
0
0
0
0
0
0
0
0
0
0
0
0
0
0
0
0
0
0
0
0
0
0
0
0
0
0
0
0
0
0
0
0
0
0
0
0
0
0
0
0
0
0
0
0
0
0
0
0
0
0
0
0
0
0
0
0
0
0
0
0
0
0
0
0
0
0
0
0
0
0
0
0
0
0
0
0
0
0
0
0
0
0
0
0
0
0
0
0
0
0
0
0
0
0
0
0
0
0
0
0
0
0
0
0
0
0
0
0
0
0
0
0
0
0
0
0
0
0
0
0
0
0
0
0
0
0
0
0
0
0
0
0
0
0
0
0
0
0
0
0
0
0
0
0
0
0
0
0
0
0
0
0
0
0
0
0
0
0
0
0
0
0
0
0
0
0
0
0
0
0
0
0
0
0
0
0
0
0
0
0
0
0
0
0
0
0
0
0
0
0
0
0
0
0
0
0
0
0
0
0
0
0
0
0
0
0
0
0
0
0
0
0
0
0
0
0
0
0
0
0
0
0
0
0
0
0
0
0
0
0
0
0
0
0
0
0
0
0
0
0
0
0
0
0
0
0
0
0
0
0
0
0
0
0
0
0
0
0
0
0
0
0
0
0
0
0
0
0
0
0
0
0
0
0
0
0
0
0
0
0
0
0
0
0
0
0
0
0
0
0
0
0
0
0
0
0
0
0
0
0
0
0
0
0
0
0
0
0
0
0
0
0
0
0
0
0
0
0
0
0
0
0
0
0
0
0
0
0
0
0
0
0
0
0
0
0
0
0
0
0
0
0
0
0
0
0
0
0
0
0
0
0
0
0
0
0
0
0
0
0
0
0
0
0
0
0
0
0
0
0
0
0
0
0
0
0
0
0
0
0
0
0
0
0
0
0
0
0
0
0
0
0
0
0
0
0
0
0
0
0
0
0
0
0
0
0
0
0
0
0
0
0
0
0
0
0
0
0
0
0
0
0
0
0
0
0
0
0
0
0
0
0
0
0
0
0
0
0
0
0
0
0
0
0
0
0
0
0
0
0
0
0
0
0
0
0
0
0
0
0
0
0
0
0
0
0
0
0
0
0
0
0
0
0
0
0
0
0
0
0
0
0
0
0
0
0
0
0
0
0
0
0
0
0
0
0
0

SCALARS Inertia_Change float 1
LOOKUP_TABLE default
13.7363
13.732
13.7292
13.7276
13.7217
13.7225
13.7281
13.7324
13.73
13.7298
13.7289
13.7257
13.7269
13.7299
13.7286
13.7273
13.7281
13.7293
13.7303
13.7317
13.7326
13.7281
13.7266
13.7269
13.7287
13.7288
13.7276
13.729
13.7338
13.7297
13.7278
13.7301
13.7308
13.7283
13.7262
13.7371
13.7302
13.7274
13.7306
13.7306
13.7317
13.7298
13.7291
13.726
13.7271
13.7284
13.727
13.7304
13.7304
13.7264
13.7267
13.7272
13.7271
13.7269
13.7282
13.7273
13.7266
13.727
13.7248
13.7272
13.7285
13.7288
13.7281
13.7275
13.7271
13.7252
13.7276
13.7293
13.7291
13.7279
13.7347
13.7315
13.7287
13.7295
13.7294
13.727
13.7254
13.7326
13.7289
13.7293
13.7315
13.7297
13.7281
13.7282
13.7329
13.7307
13.7314
13.7327
13.7303
13.7283
13.7295
13.7351
13.7327
13.7304
13.7312
13.7309
13.729
13.728
13.7288
13.7277
13.7271
13.7258
13.7253
13.7286
13.7291
13.7287
13.7308
13.7294
13.7234
13.7254
13.7308
13.7294
13.7318
13.7321
13.7317
13.7259
13.7273
13.7323
13.7306
13.7323
13.7294
13.7283
13.7272
13.7257
13.727
13.7282
13.7277
13.7281
13.728
13.7299
13.7282
13.7275
13.7284
13.7252
13.7292
13.7306
13.7306
13.731
13.7308
13.7283
13.7306
13.7319
13.7286
13.7249
13.7284
13.7295
13.727
13.7276
13.7293
13.7278
13.7252
13.7274
13.7293
13.7285
13.728
13.7299
13.7285
13.7266
13.7302
13.7309
13.7276
13.7305
13.7313
13.7293
13.7257
13.728
13.728
13.7271
13.7263
13.7281
13.7292
13.7278
13.7283
13.7265
13.7271
13.7222
13.7267
13.726
13.7252
13.7309
13.7296
13.7284
13.7215
13.7276
13.7275
13.7267
13.7313
13.7288
13.7281
13.7268
13.7292
13.7291
13.7286
13.7299
13.7284
13.728
13.7279
13.7287
13.7292
13.7281
13.7291
13.7311
13.729
13.727
13.7267
13.7283
13.7272
13.7263
13.7274
13.7265
13.724
13.7253
13.7284
13.726
13.725
13.7251
13.7256
13.7224
13.7263
13.7297
13.7285
13.7298
13.7274
13.7267
13.7249
13.7292
13.7333
13.7316
13.7316
13.7291
13.7291
13.7225
13.7272
13.7322
13.731
13.7316
13.7319
13.7317
13.7234
13.7255
13.7288
13.7284
13.7282
13.7306
13.7284
13.7293
13.728
13.7285
13.728
13.725
13.7267
13.7262
13.7233
13.7252
13.7288
13.7291
13.7275
13.7283
13.7289
13.7208
13.7268
13.7315
13.728
13.729
13.7318
13.731
13.7266
13.7293
13.7283
13.7252
13.7284
13.7299
13.7289
13.7251
13.728
13.7276
13.7258
13.7288
13.7264
13.7242
13.73
13.732
13.7329
13.7314
13.7325
13.7271
13.7228
13.7351
13.734
13.7337
13.7339
13.7331
13.7283
13.7276
13.7305
13.7299
13.7291
13.7307
13.7296
13.7263
13.7292
13.7267
13.7293
13.7284
13.7267
13.727
13.7257
13.7265
13.7233
13.7273
13.7295
13.7275
13.7249
13.7244
13.7254
13.7238
13.724
13.7273
13.7313
13.7268
13.7239
13.7255
13.728
13.7267
13.7287
13.731
13.7286
13.7286
13.7285
13.7272
13.7289
13.7321
13.7292
13.7273
13.7276
13.7268
13.7291
13.7291
13.7307
13.7328
13.7328
13.7285
13.7276
13.7314
13.7294
13.7291
13.7331
13.7371
13.7351
13.7311
13.7313
13.7299
13.7275
13.7252
13.7281
13.7311
13.7284
13.7316
13.7318
13.7305
13.7247
13.7221
13.7275
13.7311
13.7266
13.7297
13.7313
13.727
13.7268
13.7302
13.7295
13.7255
13.7269
13.7263
13.727
13.7317
13.7295
13.7242
13.7218
13.724
13.7245
13.7253
13.7286
13.7261
13.7237
13.7226
13.7264
13.7265
13.7242
13.7277
13.7278
13.7268
13.7329
13.7324
13.7302
13.7306
13.7336
13.7312
13.7305
13.7297
13.7271
13.728
13.7316
13.7304
13.7297
13.7324
13.7256
13.7247
13.7264
13.7297
13.7288
13.7283
13.7315
13.7275
13.7263
13.7277
13.7305
13.7304
13.7282
13.7265
13.7233
13.7245
13.7279
13.7299
13.7289
13.7285
13.7273
13.7213
13.726
13.7297
13.7267
13.7259
13.7274
13.7295
13.7228
13.7273
13.7311
13.7259
13.7228
13.7249
13.7274
13.7247
13.7276
13.7305
13.7306
13.7295
13.7286
13.7268
13.7261
13.7285
13.7293
13.7313
13.7346
13.7327
13.7271
13.727
13.7245
13.7257
13.728
13.7258
13.7268
13.7336
13.7352
13.7291
13.7262
13.7259
13.7268
13.7249
13.724
13.7269
13.7277
13.7301
13.7269
13.727
13.7271
13.7284
13.7265
13.724
13.7241
13.727
13.7262
13.7282
13.726
13.7295
13.7332
13.73
13.727
13.7244
13.7253
13.7288
13.7267
13.729
13.7329
13.7299
13.7269
13.7262
13.7254
13.7269
13.7283
13.7299
13.7285
13.7263
13.7265
13.7298
13.7285
13.7275
13.7307
13.7298
13.7267
13.7274
13.7288
13.7263
13.7248
13.7269
13.7346
13.731
13.7271
13.729
13.728
13.7252
13.7253
13.7267
13.7307
13.7298
13.7307
13.7287
13.7242
13.7275
13.7295
13.7291
13.727
13.7295
13.7314
13.7269
13.7252
13.7265
13.7282
13.7293
13.7282
13.728
13.7269
13.7257
13.7268
13.7291
13.7269
13.7282
13.7299
13.7285
13.728
13.7264
13.7249
13.7297
13.7269
13.7278
13.7297
13.7296
13.7303
13.7294
13.7272
13.7265
13.7258
13.7293
13.7306
13.7271
13.7273
13.7307
13.7316
13.7266
13.7256
13.729
13.7293
13.7261
13.7259
13.7297
13.7336
13.7263
13.7267
13.728
13.7265
13.7275
13.7267
13.7294
13.7351
13.727
13.7267
13.7304
13.7307
13.7325
13.7283
13.7255
13.7285
13.7269
13.7275
13.7314
13.7316
13.7315
13.7283
13.7251
13.7255
13.7249
13.7268
13.7298
13.7304
13.7278
13.7251
13.725
13.7248
13.723
13.725
13.7282
13.7317
13.7303
13.7257
13.7269
13.7282
13.7269
13.7286
13.7297
13.7314
13.7306
13.7289
13.7319
13.7344
13.728
13.7282
13.729
13.7287
13.7267
13.7264
13.7286
13.7308
13.728
13.7285
13.7264
13.7259
13.7253
13.7242
13.7266
13.7297
13.7304
13.7296
13.7268
13.7292
13.7308
13.7285
13.7282
13.7285
13.7299
13.7281
13.7278
13.7306
13.73
13.7277
13.7271
13.7264
13.7289
13.7296
13.7308
13.7299
13.7272
13.7257
13.7245
13.7228
13.7259
13.7269
13.7287
13.7288
13.7282
13.7274
13.7261
13.7226
13.7279
13.7285
13.7274
13.7283
13.7261
13.7249
13.7273
13.726
13.7271
13.7261
13.7267
13.7298
13.7271
13.7253
13.7281
13.7288
13.7264
13.7279
13.7293
13.7284
13.7271
13.7282
13.73
13.7299
13.7291
13.7305
13.7316
13.7288
13.7279
13.7285
13.729
13.7304
13.73
13.7276
13.7264
13.7281
13.729
13.7257
13.726
13.7297
13.7317
13.7313
13.7312
13.7307
13.7318
13.7293
13.728
13.7296
13.7291
13.7308
13.7343
13.7314
13.7329
13.7315
13.7291
13.73
13.7234
13.7271
13.7299
13.728
13.7272
13.7264
13.7272
13.7272
13.7249
13.7285
13.731
13.7315
13.7265
13.7265
13.7288
13.726
13.7283
13.7269
13.7268
13.7317
13.7288
13.7271
13.73
13.7275
13.7306
13.7272
13.7242
13.7277
13.7276
13.7273
13.7297
13.7293
13.7292
13.7307
13.731
13.7261
13.7236
13.7266
13.7278
13.7274
13.7237
13.7272
13.7312
13.7273
13.725
13.7289
13.7314
13.7301
13.7273
13.7302
13.7308
13.7317
13.7303
13.7306
13.7329
13.732
13.7315
13.7321
13.7321
13.7325
13.7312
13.7298
13.73
13.7295
13.7273
13.7261
13.7277
13.7268
13.7268
13.7253
13.7275
13.7295
13.7253
13.7269
13.7273
13.7273
13.7284
13.7262
13.7268
13.7276
13.728
13.7294
13.7288
13.7295
13.7308
13.7307
13.7279
13.7275
13.7271
13.7257
13.7272
13.7266
13.7259
13.7278
13.7261
13.7273
13.7269
13.7256
13.727
13.7253
13.7243
13.7268
13.7264
13.727
13.7279
13.7265
13.7279
13.7285
13.7273
13.7297
13.7299
13.7286
13.731
13.729
13.7285
13.7302
13.729
13.7304
13.7305
13.7288
13.733
13.7354
13.7319
13.7265
13.7273
13.7298
13.7286
13.7274
13.7274
13.7321
13.7322
13.7254
13.7263
13.7275
13.7248
13.7245
13.7274
13.727
13.7284
13.7236
13.7236
13.7247
13.7237
13.7249
13.7267
13.7265
13.7277
13.7262
13.7251
13.7252
13.7261
13.7277
13.726
13.7304
13.7305
13.7295
13.7291
13.7262
13.7263
13.7281
13.7259
13.7296
13.728
13.7269
13.7295
13.7297
13.7267
13.7234
13.7261
13.7272
13.728
13.7286
13.7301
13.7299
13.7275
13.7244
13.7302
13.7305
13.7327
13.7313
13.7308
13.7311
13.7303
13.729
13.7303
13.728
13.7304
13.7309
13.7303
13.7301
13.7281
13.7254
13.7279
13.7257
13.7292
13.728
13.727
13.7283
13.7262
13.723
13.7246
13.7271
13.7311
13.7259
13.7228
13.7262
13.727
13.7257
13.7264
13.7289
13.7298
13.7258
13.7221
13.7242
13.7274
13.728
13.7303
13.7287
13.7275
13.7268
13.727
13.7298
13.7277
13.7232
13.7289
13.728
13.7274
13.7264
13.7263
13.7294
13.7274
13.7231
13.727
13.73
13.7296
13.7278
13.7274
13.7295
13.7304
13.7293
13.7264
13.7313
13.7316
13.7309
13.7318
13.7317
13.7302
13.7288
0
0
0
0

VECTORS Velocity float
0 0 0
0 0 0
0 0 0
0 0 0
0 0 0
0 0 0
0 0 0
0 0 0
0 0 0
0 0 0
0 0 0
0 0 0
0 0 0
0 0 0
0 0 0
0 0 0
0 0 0
0 0 0
0 0 0
0 0 0
0 0 0
0 0 0
0 0 0
0 0 0
0 0 0
0 0 0
0 0 0
0 0 0
0 0 0
0 0 0
0 0 0
0 0 0
0 0 0
0 0 0
0 0 0
0 0 0
0 0 0
0 0 0
0 0 0
0 0 0
0 0 0
0 0 0
0 0 0
0 0 0
0 0 0
0 0 0
0 0 0
0 0 0
0 0 0
0 0 0
0 0 0
0 0 0
0 0 0
0 0 0
0 0 0
0 0 0
0 0 0
0 0 0
0 0 0
0 0 0
0 0 0
0 0 0
0 0 0
0 0 0
0 0 0
0 0 0
0 0 0
0 0 0
0 0 0
0 0 0
0 0 0
0 0 0
0 0 0
0 0 0
0 0 0
0 0 0
0 0 0
0 0 0
0 0 0
0 0 0
0 0 0
0 0 0
0 0 0
0 0 0
0 0 0
0 0 0
0 0 0
0 0 0
0 0 0
0 0 0
0 0 0
0 0 0
0 0 0
0 0 0
0 0 0
0 0 0
0 0 0
0 0 0
0 0 0
0 0 0
0 0 0
0 0 0
0 0 0
0 0 0
0 0 0
0 0 0
0 0 0
0 0 0
0 0 0
0 0 0
0 0 0
0 0 0
0 0 0
0 0 0
0 0 0
0 0 0
0 0 0
0 0 0
0 0 0
0 0 0
0 0 0
0 0 0
0 0 0
0 0 0
0 0 0
0 0 0
0 0 0
0 0 0
0 0 0
0 0 0
0 0 0
0 0 0
0 0 0
0 0 0
0 0 0
0 0 0
0 0 0
0 0 0
0 0 0
0 0 0
0 0 0
0 0 0
0 0 0
0 0 0
0 0 0
0 0 0
0 0 0
0 0 0
0 0 0
0 0 0
0 0 0
0 0 0
0 0 0
0 0 0
0 0 0
0 0 0
0 0 0
0 0 0
0 0 0
0 0 0
0 0 0
0 0 0
0 0 0
0 0 0
0 0 0
0 0 0
0 0 0
0 0 0
0 0 0
0 0 0
0 0 0
0 0 0
0 0 0
0 0 0
0 0 0
0 0 0
0 0 0
0 0 0
0 0 0
0 0 0
0 0 0
0 0 0
0 0 0
0 0 0
0 0 0
0 0 0
0 0 0
0 0 0
0 0 0
0 0 0
0 0 0
0 0 0
0 0 0
0 0 0
0 0 0
0 0 0
0 0 0
0 0 0
0 0 0
0 0 0
0 0 0
0 0 0
0 0 0
0 0 0
0 0 0
0 0 0
0 0 0
0 0 0
0 0 0
0 0 0
0 0 0
0 0 0
0 0 0
0 0 0
0 0 0
0 0 0
0 0 0
0 0 0
0 0 0
0 0 0
0 0 0
0 0 0
0 0 0
0 0 0
0 0 0
0 0 0
0 0 0
0 0 0
0 0 0
0 0 0
0 0 0
0 0 0
0 0 0
0 0 0
0 0 0
0 0 0
0 0 0
0 0 0
0 0 0
0 0 0
0 0 0
0 0 0
0 0 0
0 0 0
0 0 0
0 0 0
0 0 0
0 0 0
0 0 0
0 0 0
0 0 0
0 0 0
0 0 0
0 0 0
0 0 0
0 0 0
0 0 0
0 0 0
0 0 0
0 0 0
0 0 0
0 0 0
0 0 0
0 0 0
0 0 0
0 0 0
0 0 0
0 0 0
0 0 0
0 0 0
0 0 0
0 0 0
0 0 0
0 0 0
0 0 0
0 0 0
0 0 0
0 0 0
0 0 0
0 0 0
0 0 0
0 0 0
0 0 0
0 0 0
0 0 0
0 0 0
0 0 0
0 0 0
0 0 0
0 0 0
0 0 0
0 0 0
0 0 0
0 0 0
0 0 0
0 0 0
0 0 0
0 0 0
0 0 0
0 0 0
0 0 0
0 0 0
0 0 0
0 0 0
0 0 0
0 0 0
0 0 0
0 0 0
0 0 0
0 0 0
0 0 0
0 0 0
0 0 0
0 0 0
0 0 0
0 0 0
0 0 0
0 0 0
0 0 0
0 0 0
0 0 0
0 0 0
0 0 0
0 0 0
0 0 0
0 0 0
0 0 0
0 0 0
0 0 0
0 0 0
0 0 0
0 0 0
0 0 0
0 0 0
0 0 0
0 0 0
0 0 0
0 0 0
0 0 0
0 0 0
0 0 0
0 0 0
0 0 0
0 0 0
0 0 0
0 0 0
0 0 0
0 0 0
0 0 0
0 0 0
0 0 0
0 0 0
0 0 0
0 0 0
0 0 0
0 0 0
0 0 0
0 0 0
0 0 0
0 0 0
0 0 0
0 0 0
0 0 0
0 0 0
0 0 0
0 0 0
0 0 0
0 0 0
0 0 0
0 0 0
0 0 0
0 0 0
0 0 0
0 0 0
0 0 0
0 0 0
0 0 0
0 0 0
0 0 0
0 0 0
0 0 0
0 0 0
0 0 0
0 0 0
0 0 0
0 0 0
0 0 0
0 0 0
0 0 0
0 0 0
0 0 0
0 0 0
0 0 0
0 0 0
0 0 0
0 0 0
0 0 0
0 0 0
0 0 0
0 0 0
0 0 0
0 0 0
0 0 0
0 0 0
0 0 0
0 0 0
0 0 0
0 0 0
0 0 0
0 0 0
0 0 0
0 0 0
0 0 0
0 0 0
0 0 0
0 0 0
0 0 0
0 0 0
0 0 0
0 0 0
0 0 0
0 0 0
0 0 0
0 0 0
0 0 0
0 0 0
0 0 0
0 0 0
0 0 0
0 0 0
0 0 0
0 0 0
0 0 0
0 0 0
0 0 0
0 0 0
0 0 0
0 0 0
0 0 0
0 0 0
0 0 0
0 0 0
0 0 0
0 0 0
0 0 0
0 0 0
0 0 0
0 0 0
0 0 0
0 0 0
0 0 0
0 0 0
0 0 0
0 0 0
0 0 0
0 0 0
0 0 0
0 0 0
0 0 0
0 0 0
0 0 0
0 0 0
0 0 0
0 0 0
0 0 0
0 0 0
0 0 0
0 0 0
0 0 0
0 0 0
0 0 0
0 0 0
0 0 0
0 0 0
0 0 0
0 0 0
0 0 0
0 0 0
0 0 0
0 0 0
0 0 0
0 0 0
0 0 0
0 0 0
0 0 0
0 0 0
0 0 0
0 0 0
0 0 0
0 0 0
0 0 0
0 0 0
0 0 0
0 0 0
0 0 0
0 0 0
0 0 0
0 0 0
0 0 0
0 0 0
0 0 0
0 0 0
0 0 0
0 0 0
0 0 0
0 0 0
0 0 0
0 0 0
0 0 0
0 0 0
0 0 0
0 0 0
0 0 0
0 0 0
0 0 0
0 0 0
0 0 0
0 0 0
0 0 0
0 0 0
0 0 0
0 0 0
0 0 0
0 0 0
0 0 0
0 0 0
0 0 0
0 0 0
0 0 0
0 0 0
0 0 0
0 0 0
0 0 0
0 0 0
0 0 0
0 0 0
0 0 0
0 0 0
0 0 0
0 0 0
0 0 0
0 0 0
0 0 0
0 0 0
0 0 0
0 0 0
0 0 0
0 0 0
0 0 0
0 0 0
0 0 0
0 0 0
0 0 0
0 0 0
0 0 0
0 0 0
0 0 0
0 0 0
0 0 0
0 0 0
0 0 0
0 0 0
0 0 0
0 0 0
0 0 0
0 0 0
0 0 0
0 0 0
0 0 0
0 0 0
0 0 0
0 0 0
0 0 0
0 0 0
0 0 0
0 0 0
0 0 0
0 0 0
0 0 0
0 0 0
0 0 0
0 0 0
0 0 0
0 0 0
0 0 0
0 0 0
0 0 0
0 0 0
0 0 0
0 0 0
0 0 0
0 0 0
0 0 0
0 0 0
0 0 0
0 0 0
0 0 0
0 0 0
0 0 0
0 0 0
0 0 0
0 0 0
0 0 0
0 0 0
0 0 0
0 0 0
0 0 0
0 0 0
0 0 0
0 0 0
0 0 0
0 0 0
0 0 0
0 0 0
0 0 0
0 0 0
0 0 0
0 0 0
0 0 0
0 0 0
0 0 0
0 0 0
0 0 0
0 0 0
0 0 0
0 0 0
0 0 0
0 0 0
0 0 0
0 0 0
0 0 0
0 0 0
0 0 0
0 0 0
0 0 0
0 0 0
0 0 0
0 0 0
0 0 0
0 0 0
0 0 0
0 0 0
0 0 0
0 0 0
0 0 0
0 0 0
0 0 0
0 0 0
0 0 0
0 0 0
0 0 0
0 0 0
0 0 0
0 0 0
0 0 0
0 0 0
0 0 0
0 0 0
0 0 0
0 0 0
0 0 0
0 0 0
0 0 0
0 0 0
0 0 0
0 0 0
0 0 0
0 0 0
0 0 0
0 0 0
0 0 0
0 0 0
0 0 0
0 0 0
0 0 0
0 0 0
0 0 0
0 0 0
0 0 0
0 0 0
0 0 0
0 0 0
0 0 0
0 0 0
0 0 0
0 0 0
0 0 0
0 0 0
0 0 0
0 0 0
0 0 0
0 0 0
0 0 0
0 0 0
0 0 0
0 0 0
0 0 0
0 0 0
0 0 0
0 0 0
0 0 0
0 0 0
0 0 0
0 0 0
0 0 0
0 0 0
0 0 0
0 0 0
0 0 0
0 0 0
0 0 0
0 0 0
0 0 0
0 0 0
0 0 0
0 0 0
0 0 0
0 0 0
0 0 0
0 0 0
0 0 0
0 0 0
0 0 0
0 0 0
0 0 0
0 0 0
0 0 0
0 0 0
0 0 0
0 0 0
0 0 0
0 0 0
0 0 0
0 0 0
0 0 0
0 0 0
0 0 0
0 0 0
0 0 0
0 0 0
0 0 0
0 0 0
0 0 0
0 0 0
0 0 0
0 0 0
0 0 0
0 0 0
0 0 0
0 0 0
0 0 0
0 0 0
0 0 0
0 0 0
0 0 0
0 0 0
0 0 0
0 0 0
0 0 0
0 0 0
0 0 0
0 0 0
0 0 0
0 0 0
0 0 0
0 0 0
0 0 0
0 0 0
0 0 0
0 0 0
0 0 0
0 0 0
0 0 0
0 0 0
0 0 0
0 0 0
0 0 0
0 0 0
0 0 0
0 0 0
0 0 0
0 0 0
0 0 0
0 0 0
0 0 0
0 0 0
0 0 0
0 0 0
0 0 0
0 0 0
0 0 0
0 0 0
0 0 0
0 0 0
0 0 0
0 0 0
0 0 0
0 0 0
0 0 0
0 0 0
0 0 0
0 0 0
0 0 0
0 0 0
0 0 0
0 0 0
0 0 0
0 0 0
0 0 0
0 0 0
0 0 0
0 0 0
0 0 0
0 0 0
0 0 0
0 0 0
0 0 0
0 0 0
0 0 0
0 0 0
0 0 0
0 0 0
0 0 0
0 0 0
0 0 0
0 0 0
0 0 0
0 0 0
0 0 0
0 0 0
0 0 0
0 0 0
0 0 0
0 0 0
0 0 0
0 0 0
0 0 0
0 0 0
0 0 0
0 0 0
0 0 0
0 0 0
0 0 0
0 0 0
0 0 0
0 0 0
0 0 0
0 0 0
0 0 0
0 0 0
0 0 0
0 0 0
0 0 0
0 0 0
0 0 0
0 0 0
0 0 0
0 0 0
0 0 0
0 0 0
0 0 0
0 0 0
0 0 0
0 0 0
0 0 0
0 0 0
0 0 0
0 0 0
0 0 0
0 0 0
0 0 0
0 0 0
0 0 0
0 0 0
0 0 0
0 0 0
0 0 0
0 0 0
0 0 0
0 0 0
0 0 0
0 0 0
0 0 0
0 0 0
0 0 0
0 0 0
0 0 0
0 0 0
0 0 0
0 0 0
0 0 0
0 0 0
0 0 0
0 0 0
0 0 0
0 0 0
0 0 0
0 0 0
0 0 0
0 0 0
0 0 0
0 0 0
0 0 0
0 0 0
0 0 0
0 0 0
0 0 0
0 0 0
0 0 0
0 0 0
0 0 0
0 0 0
0 0 0
0 0 0
0 0 0
0 0 0
0 0 0
0 0 0
0 0 0
0 0 0
0 0 0
0 0 0
0 0 0
0 0 0
0 0 0
0 0 0
0 0 0
0 0 0
0 0 0
0 0 0
0 0 0
0 0 0
0 0 0
0 0 0
0 0 0
0 0 0
0 0 0
0 0 0
0 0 0
0 0 0
0 0 0
0 0 0
0 0 0
0 0 0
0 0 0
0 0 0
0 0 0
0 0 0
0 0 0
0 0 0
0 0 0
0 0 0
0 0 0
0 0 0
0 0 0
0 0 0
0 0 0
0 0 0
0 0 0
0 0 0
0 0 0
0 0 0
0 0 0
0 0 0
0 0 0
0 0 0
0 0 0
0 0 0
0 0 0
0 0 0
0 0 0
0 0 0
0 0 0
0 0 0
0 0 0
0 0 0
0 0 0
0 0 0
0 0 0

VECTORS Contact_Forces float
0 0 0
0 0 0
0 0 0
0 0 0
0 0 0
0 0 0
0 0 0
0 0 0
0 0 0
0 0 0
0 0 0
0 0 0
0 0 0
0 0 0
0 0 0
0 0 0
0 0 0
0 0 0
0 0 0
0 0 0
0 0 0
0 0 0
0 0 0
0 0 0
0 0 0
0 0 0
0 0 0
0 0 0
0 0 0
0 0 0
0 0 0
0 0 0
0 0 0
0 0 0
0 0 0
0 0 0
0 0 0
0 0 0
0 0 0
0 0 0
0 0 0
0 0 0
0 0 0
0 0 0
0 0 0
0 0 0
0 0 0
0 0 0
0 0 0
0 0 0
0 0 0
0 0 0
0 0 0
0 0 0
0 0 0
0 0 0
0 0 0
0 0 0
0 0 0
0 0 0
0 0 0
0 0 0
0 0 0
0 0 0
0 0 0
0 0 0
0 0 0
0 0 0
0 0 0
0 0 0
0 0 0
0 0 0
0 0 0
0 0 0
0 0 0