# vtk DataFile Version 3.0
vtk output
ASCII
DATASET UNSTRUCTURED_GRID
FIELD FieldData 2
TIME 1 1 double
0
CYCLE 1 1 int
0
POINTS 8 float
0 0 0
10 0 0
10 10 0
0 10 0
12 0 0
22 0 0
22 10 0
12 10 0

CELLS 2 10
4 0 1 2 3
4 4 5 6 7

CELL_TYPES 2
9
9

POINT_DATA 8
SCALARS NODE_ID int 1
LOOKUP_TABLE default
1
2
3
4
5
6
7
8

SCALARS Time_Step float 1
LOOKUP_TABLE default
0.00119476
0.00119476
0.00119476
0.00119476
0.00247091
0.00247091
0.00247091
0.00247091

SCALARS Mass_Change float 1
LOOKUP_TABLE default
0
0
0
0
0
0
0
0

VECTORS Velocity float
0 0 0
0 0 0
0 0 0
0 0 0
0 0 0
0 0 0
0 0 0
0 0 0

VECTORS Displacement float
0 0 0
0 0 0
0 0 0
0 0 0
0 0 0
0 0 0
0 0 0
0 0 0

VECTORS Contact_Forces float
0 0 0
0 0 0
0 0 0
0 0 0
0 0 0
0 0 0
0 0 0
0 0 0

CELL_DATA 2
SCALARS ELEMENT_ID int 1
LOOKUP_TABLE default
1
2

SCALARS PART_ID int 1
LOOKUP_TABLE default
20
261

SCALARS EROSION_STATUS int 1
LOOKUP_TABLE default
1
1

SCALARS 2DELEM_Plastic_Strain float 1
LOOKUP_TABLE default
0
0

SCALARS 2DELEM_Von_Mises float 1
LOOKUP_TABLE default
0
0

SCALARS 2DELEM_Hourglass_Energy float 1
LOOKUP_TABLE default
0
0

TENSORS 2DELEM_Stress_(upper) float
0 0 0 
0 0 0 
0 0 0 
0 0 0 
0 0 0 
0 0 0 

TENSORS 2DELEM_Stress_(lower) float
0 0 0 
0 0 0 
0 0 0 
0 0 0 
0 0 0 
0 0 0 

TENSORS 2DELEM_Strain_(upper) float
0 0 0 
0 0 0 
0 0 0 
0 0 0 
0 0 0 
0 0 0 

TENSORS 2DELEM_Strain_(lower) float
0 0 0 
0 0 0 
0 0 0 
0 0 0 
0 0 0 
0 0 0 

