# vtk DataFile Version 3.0
vtk output
ASCII
DATASET UNSTRUCTURED_GRID
FIELD FieldData 2
TIME 1 1 double
0.491421
CYCLE 1 1 int
0
POINTS 8 float
0 0 0
10 0 0
9.3688 11.8112 2.72905e-17
0.6312 11.8112 2.72905e-17
12 0 0
22 0 0
21.85 11.8112 1.0518e-16
12.15 11.8112 1.0518e-16

CELLS 2 10
4 0 1 2 3
4 4 5 6 7

CELL_TYPES 2
9
9

POINT_DATA 8
SCALARS NODE_ID int 1
LOOKUP_TABLE default
1
2
3
4
5
6
7
8

SCALARS Time_Step float 1
LOOKUP_TABLE default
4.3421e+09
4.3421e+09
4.3421e+09
4.3421e+09
4.3421e+09
4.3421e+09
4.3421e+09
4.3421e+09

SCALARS Mass_Change float 1
LOOKUP_TABLE default
0
0
0
0
0
0
0
0

VECTORS Velocity float
0 0 0
0 0 0
0.386697 7.34599 3.22726e-15
-0.386697 7.34599 3.22726e-15
0 0 0
0 0 0
1.07697 7.34599 4.73753e-16
-1.07697 7.34599 4.73753e-16

VECTORS Displacement float
0 0 0
0 0 0
-0.6312 1.81121 2.72905e-17
0.6312 1.81121 2.72905e-17
0 0 0
0 0 0
-0.149974 1.81121 1.0518e-16
0.149974 1.81121 1.0518e-16

VECTORS Contact_Forces float
0 0 0
0 0 0
0 0 0
0 0 0
0 0 0
0 0 0
0 0 0
0 0 0

CELL_DATA 2
SCALARS ELEMENT_ID int 1
LOOKUP_TABLE default
1
2

SCALARS PART_ID int 1
LOOKUP_TABLE default
20
261

SCALARS EROSION_STATUS int 1
LOOKUP_TABLE default
0
0

SCALARS 2DELEM_Plastic_Strain float 1
LOOKUP_TABLE default
0.135223
0.0540232

SCALARS 2DELEM_Von_Mises float 1
LOOKUP_TABLE default
0
0

SCALARS 2DELEM_Hourglass_Energy float 1
LOOKUP_TABLE default
273.115
15.497

TENSORS 2DELEM_Stress_(upper) float
83.8511 1.51226e-14 0 
1.51226e-14 2.24131 0 
0 0 0 
282.427 4.41793e-14 0 
4.41793e-14 1.87248 0 
0 0 0 

TENSORS 2DELEM_Stress_(lower) float
83.8511 1.51226e-14 0 
1.51226e-14 2.24131 0 
0 0 0 
282.427 4.41793e-14 0 
4.41793e-14 1.87248 0 
0 0 0 

TENSORS 2DELEM_Strain_(upper) float
-0.0652078 -4.68684e-17 0 
-4.68684e-17 0.166415 0 
0 0 0 
-0.0151154 -1.22274e-16 0 
-1.22274e-16 0.166415 0 
0 0 0 

TENSORS 2DELEM_Strain_(lower) float
-0.0652078 -4.68684e-17 0 
-4.68684e-17 0.166415 0 
0 0 0 
-0.0151154 -1.22274e-16 0 
-1.22274e-16 0.166415 0 
0 0 0 

