# vtk DataFile Version 3.0
vtk output
ASCII
DATASET UNSTRUCTURED_GRID
FIELD FieldData 2
TIME 1 1 double
0.800219
CYCLE 1 1 int
0
POINTS 1144 float
0 0 -0.1512
0 0 -0.194847
0 0.0838077 -0.173014
0 0.0631351 -0.156991
0 0 -0.219213
0 0.0864892 -0.200778
0 0 -0.242059
0 0.0823306 -0.230968
0 0 -0.267435
0 0.077342 -0.260939
0 0 -0.294749
0 0.0744019 -0.290878
0 0 -0.324778
0 0.0733717 -0.321192
0 0.171669 -0.159328
0 0.210212 -0.132273
0 0.160945 -0.188123
0 0.155021 -0.219467
0 0.149823 -0.250561
0 0.145483 -0.282096
0 0.144202 -0.313476
0 0.253251 -0.146792
0 0.298374 -0.100401
0 0.237512 -0.177979
0 0.228267 -0.207487
0 0.221092 -0.238239
0 0.215285 -0.269811
0 0.214718 -0.3029
0 0.330585 -0.112348
0 0.391616 -0.0666116
0 0.314436 -0.14945
0 0.302117 -0.185091
0 0.291944 -0.219868
0 0.283893 -0.254052
0 0.283676 -0.288589
0 0.399189 -0.0917936
0 0.465751 -0.0313754
0 0.382609 -0.126854
0 0.371083 -0.161993
0 0.360026 -0.198192
0 0.351014 -0.235398
0 0.350863 -0.271178
0 0.465381 -0.060647
0 0.539017 0.0108353
0 0.448558 -0.100747
0 0.436261 -0.138485
0 0.42579 -0.176066
0 0.416564 -0.214942
0 0.415905 -0.25154
0 0.52118 -0.0383127
0 0.58786 0.044781
0 0.502967 -0.0822076
0 0.496131 -0.120702
0 0.488547 -0.157763
0 0.480395 -0.194753
0 0.478803 -0.230798
0 0.563372 -0.030635
0 0.596549 0.0343289
0 0.557913 -0.0731451
0 0.552887 -0.108878
0 0.547581 -0.144035
0 0.541428 -0.178368
0 0.539966 -0.213121
0 0.605702 -0.0316118
0 0.61382 0.00978788
0 0.608046 -0.06699
0 0.607018 -0.102091
0 0.604814 -0.135982
0 0.602608 -0.169575
0 0.602195 -0.203427
0 0.666868 -0.0329457
0 0.66734 0.00051444
0 0.667461 -0.0665003
0 0.667513 -0.100022
0 0.66739 -0.133639
0 0.667128 -0.167033
0 0.667193 -0.200519
0 0.733384 -0.0333273
0 0.733424 6.6884e-05
0 0.733408 -0.0666188
0 0.733423 -0.100027
0 0.733402 -0.133328
0 0.733417 -0.166701
0 0.733425 -0.200053
0 0.800012 -0.0333184
0 0.799999 -1.10382e-05
0 0.80001 -0.0666815
0 0.800004 -0.0999846
0 0.800014 -0.133344
0 0.800005 -0.166665
0 0.800014 -0.200008
0 0.866666 -0.0333451
0 0.866677 1.61633e-05
0 0.866666 -0.0666543
0 0.866671 -0.100009
0 0.866665 -0.133328
0 0.866669 -0.166669
0 0.866666 -0.2
0 0.933334 -0.0333251
0 0.933329 -9.31453e-06
0 0.933334 -0.0666743
0 0.933332 -0.0999944
0 0.933335 -0.133336
0 0.933333 -0.166665
0 0.933334 -0.200001
0 1 -0.033337
0 1 4.19088e-06
0 1 -0.0666632
0 1 -0.100003
0 1 -0.133332
0 1 -0.166667
0 1 -0.2
0 1.06667 -0.0333322
0 1.06667 -1.20652e-06
0 1.06667 -0.0666677
0 1.06667 -0.0999992
0 1.06667 -0.133334
0 1.06667 -0.166666
0 1.06667 -0.2
0 1.13333 -0.0333337
0 1.13333 3.14576e-07
0 1.13333 -0.0666663
0 1.13333 -0.1
0 1.13333 -0.133333
0 1.13333 -0.166667
0 1.13333 -0.2
0 1.2 -0.0333333
0 1.2 -5.31796e-08
0 1.2 -0.0666667
0 1.2 -0.1
0 1.2 -0.133333
0 1.2 -0.166666
0 1.2 -0.2
0 1.26667 -0.0333334
0 1.26667 9.3205e-09
0 1.26667 -0.0666666
0 1.26667 -0.1
0 1.26667 -0.133333
0 1.26667 -0.166667
0 1.26667 -0.2
0 1.33333 -0.0333334
0 1.33333 -1.03403e-09
0 1.33333 -0.0666666
0 1.33333 -0.1
0 1.33333 -0.133333
0 1.33333 -0.166666
0 1.33333 -0.2
0 1.4 -0.0333334
0 1.4 1.30976e-10
0 1.4 -0.0666666
0 1.4 -0.1
0 1.4 -0.133333
0 1.4 -0.166666
0 1.4 -0.2
0 1.46667 -0.0333334
0 1.46667 -1.00934e-11
0 1.46667 -0.0666666
0 1.46667 -0.1
0 1.46667 -0.133333
0 1.46667 -0.166666
0 1.46667 -0.2
0 1.53333 -0.0333334
0 1.53333 9.6147e-13
0 1.53333 -0.0666666
0 1.53333 -0.1
0 1.53333 -0.133333
0 1.53333 -0.166666
0 1.53333 -0.2
0 1.6 -0.0333334
0 1.6 -5.32373e-14
0 1.6 -0.0666666
0 1.6 -0.1
0 1.6 -0.133333
0 1.6 -0.166666
0 1.6 -0.2
0 1.66667 -0.0333334
0 1.66667 3.95185e-15
0 1.66667 -0.0666666
0 1.66667 -0.1
0 1.66667 -0.133333
0 1.66667 -0.166666
0 1.66667 -0.2
0 1.73333 -0.0333334
0 1.73333 -1.92775e-16
0 1.73333 -0.0666666
0 1.73333 -0.1
0 1.73333 -0.133333
0 1.73333 -0.166666
0 1.73333 -0.2
0 1.8 -0.0333334
0 1.8 -6.8494e-20
0 1.8 -0.0666666
0 1.8 -0.1
0 1.8 -0.133333
0 1.8 -0.166666
0 1.8 -0.2
0 1.86667 -0.0333334
0 1.86667 1.5783e-17
0 1.86667 -0.0666666
0 1.86667 -0.1
0 1.86667 -0.133333
0 1.86667 -0.166666
0 1.86667 -0.2
0 1.93333 -0.0333334
0 1.93333 2.82472e-19
0 1.93333 -0.0666666
0 1.93333 -0.1
0 1.93333 -0.133333
0 1.93333 -0.166666
0 1.93333 -0.2
0 2 -0.0333334
0 2 2.34792e-21
0 2 -0.0666665
0 2 -0.1
0 2 -0.133333
0 2 -0.166666
0 2 -0.2
0 2.13333 -0.0333335
0 2.13333 5.46369e-24
0 2.13333 -0.0666666
0 2.13333 -0.1
0 2.13333 -0.133333
0 2.13333 -0.166666
0 2.13333 -0.2
0 2.26667 -0.0333335
0 2.26667 1.32259e-26
0 2.26667 -0.0666666
0 2.26667 -0.1
0 2.26667 -0.133333
0 2.26667 -0.166666
0 2.26667 -0.2
0 2.4 -0.0333335
0 2.4 5.71879e-29
0 2.4 -0.0666666
0 2.4 -0.1
0 2.4 -0.133333
0 2.4 -0.166666
0 2.4 -0.2
0 2.53333 -0.0333335
0 2.53333 1.14188e-31
0 2.53333 -0.0666666
0 2.53333 -0.1
0 2.53333 -0.133333
0 2.53333 -0.166666
0 2.53333 -0.2
0 2.66667 -0.0333335
0 2.66667 1.93961e-35
0 2.66667 -0.0666666
0 2.66667 -0.1
0 2.66667 -0.133333
0 2.66667 -0.166666
0 2.66667 -0.2
0 2.8 -0.0333335
0 2.8 0
0 2.8 -0.0666666
0 2.8 -0.1
0 2.8 -0.133333
0 2.8 -0.166666
0 2.8 -0.2
0 2.93333 -0.0333334
0 2.93333 0
0 2.93333 -0.0666667
0 2.93333 -0.1
0 2.93333 -0.133333
0 2.93333 -0.166666
0 2.93333 -0.2
0 3.06667 -0.0333334
0 3.06667 -0
0 3.06667 -0.0666667
0 3.06667 -0.1
0 3.06667 -0.133333
0 3.06667 -0.166666
0 3.06667 -0.2
0 3.2 -0.0333334
0 3.2 0
0 3.2 -0.0666667
0 3.2 -0.1
0 3.2 -0.133333
0 3.2 -0.166666
0 3.2 -0.2
0 3.33333 -0.0333334
0 3.33333 0
0 3.33333 -0.0666667
0 3.33333 -0.1
0 3.33333 -0.133333
0 3.33333 -0.166667
0 3.33333 -0.2
0 3.46667 -0.0333334
0 3.46667 0
0 3.46667 -0.0666667
0 3.46667 -0.1
0 3.46667 -0.133333
0 3.46667 -0.166667
0 3.46667 -0.2
0 3.6 -0.0333334
0 3.6 0
0 3.6 -0.0666667
0 3.6 -0.1
0 3.6 -0.133333
0 3.6 -0.166667
0 3.6 -0.2
0 3.73333 -0.0333334
0 3.73333 0
0 3.73333 -0.0666667
0 3.73333 -0.1
0 3.73333 -0.133333
0 3.73333 -0.166667
0 3.73333 -0.2
0 3.86667 -0.0333334
0 3.86667 0
0 3.86667 -0.0666667
0 3.86667 -0.1
0 3.86667 -0.133333
0 3.86667 -0.166667
0 3.86667 -0.2
0 4 -0.0333333
0 4 0
0 4 -0.0666666
0 4 -0.0999999
0 4 -0.133333
0 4 -0.166666
0 4 -0.2
0 0 -1.2
0 0 -1.2635
0 0.0999999 -1.2635
0 0.0999999 -1.2
0 0 -1.327
0 0.0999999 -1.327
0 0 -1.3905
0 0.0999999 -1.3905
0 0 -1.454
0 0.0999999 -1.454
0 0 -1.5175
0 0.0999999 -1.5175
0 0 -1.581
0 0.0999999 -1.581
0 0 -1.6445
0 0.0999999 -1.6445
0 0 -1.708
0 0.0999999 -1.708
0 0 -1.7715
0 0.0999999 -1.7715
0 0 -1.835
0 0.0999999 -1.835
0 0 -1.8985
0 0.0999999 -1.8985
0 0 -1.962
0 0.0999999 -1.962
0 0 -2.0255
0 0.0999999 -2.0255
0 0 -2.089
0 0.0999999 -2.089
0 0 -2.1525
0 0.0999999 -2.1525
0 0 -2.216
0 0.0999999 -2.216
0 0 -2.2795
0 0.0999999 -2.2795
0 0 -2.343
0 0.0999999 -2.343
0 0 -2.4065
0 0.0999999 -2.4065
0 0 -2.47
0 0.0999999 -2.47
0 0.2 -1.2635
0 0.2 -1.2
0 0.2 -1.327
0 0.2 -1.3905
0 0.2 -1.454
0 0.2 -1.5175
0 0.2 -1.581
0 0.2 -1.6445
0 0.2 -1.708
0 0.2 -1.7715
0 0.2 -1.835
0 0.2 -1.8985
0 0.2 -1.962
0 0.2 -2.0255
0 0.2 -2.089
0 0.2 -2.1525
0 0.2 -2.216
0 0.2 -2.2795
0 0.2 -2.343
0 0.2 -2.4065
0 0.2 -2.47
0 0.3 -1.2635
0 0.3 -1.2
0 0.3 -1.327
0 0.3 -1.3905
0 0.3 -1.454
0 0.3 -1.5175
0 0.3 -1.581
0 0.3 -1.6445
0 0.3 -1.708
0 0.3 -1.7715
0 0.3 -1.835
0 0.3 -1.8985
0 0.3 -1.962
0 0.3 -2.0255
0 0.3 -2.089
0 0.3 -2.1525
0 0.3 -2.216
0 0.3 -2.2795
0 0.3 -2.343
0 0.3 -2.4065
0 0.3 -2.47
0 0.4 -1.2635
0 0.4 -1.2
0 0.4 -1.327
0 0.4 -1.3905
0 0.4 -1.454
0 0.4 -1.5175
0 0.4 -1.581
0 0.4 -1.6445
0 0.4 -1.708
0 0.4 -1.7715
0 0.4 -1.835
0 0.4 -1.8985
0 0.4 -1.962
0 0.4 -2.0255
0 0.4 -2.089
0 0.4 -2.1525
0 0.4 -2.216
0 0.4 -2.2795
0 0.4 -2.343
0 0.4 -2.4065
0 0.4 -2.47
0 0.5 -1.2635
0 0.5 -1.2
0 0.5 -1.327
0 0.5 -1.3905
0 0.5 -1.454
0 0.5 -1.5175
0 0.5 -1.581
0 0.5 -1.6445
0 0.5 -1.708
0 0.5 -1.7715
0 0.5 -1.835
0 0.5 -1.8985
0 0.5 -1.962
0 0.5 -2.0255
0 0.5 -2.089
0 0.5 -2.1525
0 0.5 -2.216
0 0.5 -2.2795
0 0.5 -2.343
0 0.5 -2.4065
0 0.5 -2.47
0 0.6 -1.2635
0 0.6 -1.2
0 0.6 -1.327
0 0.6 -1.3905
0 0.6 -1.454
0 0.6 -1.5175
0 0.6 -1.581
0 0.6 -1.6445
0 0.6 -1.708
0 0.6 -1.7715
0 0.6 -1.835
0 0.6 -1.8985
0 0.6 -1.962
0 0.6 -2.0255
0 0.6 -2.089
0 0.6 -2.1525
0 0.6 -2.216
0 0.6 -2.2795
0 0.6 -2.343
0 0.6 -2.4065
0 0.6 -2.47
0 0.7 -1.2635
0 0.7 -1.2
0 0.7 -1.327
0 0.7 -1.3905
0 0.7 -1.454
0 0.7 -1.5175
0 0.7 -1.581
0 0.7 -1.6445
0 0.7 -1.708
0 0.7 -1.7715
0 0.7 -1.835
0 0.7 -1.8985
0 0.7 -1.962
0 0.7 -2.0255
0 0.7 -2.089
0 0.7 -2.1525
0 0.7 -2.216
0 0.7 -2.2795
0 0.7 -2.343
0 0.7 -2.4065
0 0.7 -2.47
0 0.8 -1.2635
0 0.8 -1.2
0 0.8 -1.327
0 0.8 -1.3905
0 0.8 -1.454
0 0.8 -1.5175
0 0.8 -1.581
0 0.8 -1.6445
0 0.8 -1.708
0 0.8 -1.7715
0 0.8 -1.835
0 0.8 -1.8985
0 0.8 -1.962
0 0.8 -2.0255
0 0.8 -2.089
0 0.8 -2.1525
0 0.8 -2.216
0 0.8 -2.2795
0 0.8 -2.343
0 0.8 -2.4065
0 0.8 -2.47
0 0.9 -1.2635
0 0.9 -1.2
0 0.9 -1.327
0 0.9 -1.3905
0 0.9 -1.454
0 0.9 -1.5175
0 0.9 -1.581
0 0.9 -1.6445
0 0.9 -1.708
0 0.9 -1.7715
0 0.9 -1.835
0 0.9 -1.8985
0 0.9 -1.962
0 0.9 -2.0255
0 0.9 -2.089
0 0.9 -2.1525
0 0.9 -2.216
0 0.9 -2.2795
0 0.9 -2.343
0 0.9 -2.4065
0 0.9 -2.47
0 1 -1.2635
0 1 -1.2
0 1 -1.327
0 1 -1.3905
0 1 -1.454
0 1 -1.5175
0 1 -1.581
0 1 -1.6445
0 1 -1.708
0 1 -1.7715
0 1 -1.835
0 1 -1.8985
0 1 -1.962
0 1 -2.0255
0 1 -2.089
0 1 -2.1525
0 1 -2.216
0 1 -2.2795
0 1 -2.343
0 1 -2.4065
0 1 -2.47
0 1.1 -1.2635
0 1.1 -1.2
0 1.1 -1.327
0 1.1 -1.3905
0 1.1 -1.454
0 1.1 -1.5175
0 1.1 -1.581
0 1.1 -1.6445
0 1.1 -1.708
0 1.1 -1.7715
0 1.1 -1.835
0 1.1 -1.8985
0 1.1 -1.962
0 1.1 -2.0255
0 1.1 -2.089
0 1.1 -2.1525
0 1.1 -2.216
0 1.1 -2.2795
0 1.1 -2.343
0 1.1 -2.4065
0 1.1 -2.47
0 1.2 -1.2635
0 1.2 -1.2
0 1.2 -1.327
0 1.2 -1.3905
0 1.2 -1.454
0 1.2 -1.5175
0 1.2 -1.581
0 1.2 -1.6445
0 1.2 -1.708
0 1.2 -1.7715
0 1.2 -1.835
0 1.2 -1.8985
0 1.2 -1.962
0 1.2 -2.0255
0 1.2 -2.089
0 1.2 -2.1525
0 1.2 -2.216
0 1.2 -2.2795
0 1.2 -2.343
0 1.2 -2.4065
0 1.2 -2.47
0 1.3 -1.2635
0 1.3 -1.2
0 1.3 -1.327
0 1.3 -1.3905
0 1.3 -1.454
0 1.3 -1.5175
0 1.3 -1.581
0 1.3 -1.6445
0 1.3 -1.708
0 1.3 -1.7715
0 1.3 -1.835
0 1.3 -1.8985
0 1.3 -1.962
0 1.3 -2.0255
0 1.3 -2.089
0 1.3 -2.1525
0 1.3 -2.216
0 1.3 -2.2795
0 1.3 -2.343
0 1.3 -2.4065
[...]
POINT_DATA 1144
SCALARS NODE_ID int 1
LOOKUP_TABLE default
1
2
9
8
3
10
4
11
5
12
6
13
7
14
16
15
17
18
19
20
21
23
22
24
25
26
27
28
30
29
31
32
33
34
35
37
36
38
39
40
41
42
44
43
45
46
47
48
49
51
50
52
53
54
55
56
58
57
59
60
61
62
63
65
64
66
67
68
69
70
72
71
73
74
75
76
77
79
78
80
81
82
83
84
86
85
87
88
89
90
91
93
92
94
95
96
97
98
100
99
101
102
103
104
105
107
106
108
109
110
111
112
114
113
115
116
117
118
119
121
120
122
123
124
125
126
128
127
129
130
131
132
133
135
134
136
137
138
139
140
142
141
143
144
145
146
147
149
148
150
151
152
153
154
156
155
157
158
159
160
161
163
162
164
165
166
167
168
170
169
171
172
173
174
175
177
176
178
179
180
181
182
184
183
185
186
187
188
189
191
190
192
193
194
195
196
198
197
199
200
201
202
203
205
204
206
207
208
209
210
212
211
213
214
215
216
217
219
218
220
221
222
223
224
226
225
227
228
229
230
231
233
232
234
235
236
237
238
240
239
241
242
243
244
245
247
246
248
249
250
251
252
254
253
255
256
257
258
259
261
260
262
263
264
265
266
268
267
269
270
271
272
273
275
274
276
277
278
279
280
282
281
283
284
285
286
287
289
288
290
291
292
293
294
296
295
297
298
299
300
301
303
302
304
305
306
307
308
310
309
311
312
313
314
315
317
316
318
319
320
321
322
323
324
345
344
325
346
326
347
327
348
328
349
329
350
330
351
331
352
332
353
333
354
334
355
335
356
336
357
337
358
338
359
339
360
340
361
341
362
342
363
343
364
366
365
367
368
369
370
371
372
373
374
375
376
377
378
379
380
381
382
383
384
385
387
386
388
389
390
391
392
393
394
395
396
397
398
399
400
401
402
403
404
405
406
408
407
409
410
411
412
413
414
415
416
417
418
419
420
421
422
423
424
425
426
427
429
428
430
431
432
433
434
435
436
437
438
439
440
441
442
443
444
445
446
447
448
450
449
451
452
453
454
455
456
457
458
459
460
461
462
463
464
465
466
467
468
469
471
470
472
473
474
475
476
477
478
479
480
481
482
483
484
485
486
487
488
489
490
492
491
493
494
495
496
497
498
499
500
501
502
503
504
505
506
507
508
509
510
511
513
512
514
515
516
517
518
519
520
521
522
523
524
525
526
527
528
529
530
531
532
534
533
535
536
537
538
539
540
541
542
543
544
545
546
547
548
549
550
551
552
553
555
554
556
557
558
559
560
561
562
563
564
565
566
567
568
569
570
571
572
573
574
576
575
577
578
579
580
581
582
583
584
585
586
587
588
589
590
591
592
593
594
595
597
596
598
599
600
601
602
603
604
605
606
607
608
609
610
611
612
613
614
615
616
618
617
619
620
621
622
623
624
625
626
627
628
629
630
631
632
633
634
635
636
637
639
638
640
641
642
643
644
645
646
647
648
649
650
651
652
653
654
655
656
657
658
660
659
661
662
663
664
665
666
667
668
669
670
671
672
673
674
675
676
677
678
679
681
680
682
683
684
685
686
687
688
689
690
691
692
693
694
695
696
697
698
699
700
702
701
703
704
705
706
707
708
709
710
711
712
713
714
715
716
717
718
719
720
721
723
722
724
725
726
727
728
729
730
731
732
733
734
735
736
737
738
739
740
741
742
744
743
745
746
747
748
749
750
751
752
753
754
755
756
757
758
759
760
761
762
763
765
764
766
767
768
769
770
771
772
773
774
775
776
777
778
779
780
781
782
783
784
786
785
787
788
789
790
791
792
793
794
795
796
797
798
799
800
801
802
803
804
805
807
806
808
809
810
811
812
813
814
815
816
817
818
819
820
821
822
823
824
825
826
828
827
829
830
831
832
833
834
835
836
837
838
839
840
841
842
843
844
845
846
847
849
848
850
851
852
853
854
855
856
857
858
859
860
861
862
863
864
865
866
867
868
870
869
871
872
873
874
875
876
877
878
879
880
881
882
883
884
885
886
887
888
889
891
890
892
893
894
895
896
897
898
899
900
901
902
903
904
905
906
907
908
909
910
912
911
913
914
915
916
917
918
919
920
921
922
923
924
925
926
927
928
929
930
931
933
932
934
935
936
937
938
939
940
941
942
943
944
945
946
947
948
949
950
951
952
954
953
955
956
957
958
959
960
961
962
963
964
965
966
967
968
969
970
971
972
973
974
975
981
980
976
982
977
983
978
984
979
985
987
986
988
989
990
991
993
992
994
995
996
997
999
998
1000
1001
1002
1003
1005
1004
1006
1007
1008
1009
1010
1015
1011
1016
1012
1017
1013
1018
1014
1019
1020
1021
1022
1023
1024
1025
1026
1027
1028
1029
1030
1031
1032
1033
1034
1035
1036
1037
1038
1039
1040
1041
1042
1043
1044
1045
1046
1047
1048
1049
1050
1051
1052
1053
1054
1055
1056
1057
1058
1059
1060
1061
1062
1063
1064
1066
1065
1067
1068
1069
1070
1072
1071
1073
1074
1075
1076
1078
1077
1079
1080
1081
1082
1084
1083
1085
1086
1087
1088
1090
1089
1091
1092
1093
1094
1095
1096
1097
1098
1099
1100
1101
1102
1103
1104
1105
1106
1107
1108
1109
1110
1111
1112
1113
1114
1115
1116
1117
1118
1119
1120
1121
1122
1123
1124
1125
1126
1127
1128
1129
1130
1131
1132
1133
1134
1135
1136
1137
1138
1139
1140
1141
1142
1143
1144

SCALARS Time_Step float 1
LOOKUP_TABLE default
0.0256358
0.0242852
0.0207341
0.0189027
0.022792
0.0231971
0.0229211
0.0232449
0.0238605
0.0237902
0.0255065
0.0251604
0.0268462
0.0261363
0.0179242
0.0153638
0.0229255
0.0232497
0.0234356
0.0245725
0.0253661
0.0155488
0.0134191
0.0202143
0.0218845
0.022646
0.0241107
0.0254731
0.0137367
0.0114986
0.0191366
0.0210021
0.0221914
0.0242165
0.0261922
0.0127516
0.010525
0.018548
0.0206208
0.0223598
0.0249066
0.0268561
0.0125955
0.0105384
0.0179192
0.0205093
0.0227098
0.0251419
0.0265898
0.0147638
0.0125129
0.0198523
0.0213085
0.0220688
0.0237249
0.0252738
0.0188621
0.016973
0.0214235
0.0211873
0.0211946
0.0228096
0.0246953
0.0227231
0.0227329
0.0223137
0.0220568
0.0226421
0.0245006
0.0261436
0.0271765
0.0283121
0.026069
0.0259891
0.0264216
0.0275353
0.0282677
0.0292025
0.0293281
0.0290586
0.0290152
0.0290072
0.029112
0.029202
0.0293517
0.0293743
0.0293421
0.0293465
0.0293427
0.0293499
0.0293523
0.0293821
0.0293846
0.0293783
0.0293805
0.0293805
0.0293806
0.0293842
0.0293839
0.0293819
0.0293846
0.0293839
0.0293853
0.029386
0.0293859
0.0293854
0.0293847
0.0293854
0.0293855
0.0293863
0.0293868
0.0293875
0.0293861
0.0293874
0.0293861
0.0293866
0.0293866
0.0293874
0.0293875
0.0293871
0.0293866
0.0293871
0.0293871
0.0293874
0.0293875
0.0293878
0.0293875
0.0293878
0.0293875
0.0293876
0.0293875
0.0293877
0.0293877
0.0293877
0.0293877
0.0293877
0.0293877
0.0293876
0.0293877
0.0293878
0.0293877
0.0293878
0.0293877
0.0293877
0.0293876
0.0293877
0.0293878
0.0293877
0.0293878
0.0293877
0.0293877
0.0293876
0.0293877
0.0293878
0.0293877
0.0293878
0.0293877
0.0293877
0.0293876
0.0293877
0.0293878
0.0293877
0.0293878
0.0293877
0.0293877
0.0293876
0.0293877
0.0293878
0.0293877
0.0293878
0.0293877
0.0293877
0.0293876
0.0293877
0.0293879
0.0293877
0.0293878
0.0293877
0.0293877
0.0293876
0.0293877
0.0293879
0.0293877
0.0293878
0.0293877
0.0293877
0.0293876
0.0293877
0.0293879
0.0293877
0.0293878
0.0293877
0.0293877
0.0293876
0.0293877
0.0293879
0.0293877
0.0293878
0.0293877
0.0293877
0.0293876
0.0293877
0.0293879
0.0293877
0.0293878
0.0293877
0.0293877
0.0293876
0.0293877
0.0293879
0.0309773
0.0309775
0.0309774
0.0309774
0.0309772
0.0309774
0.0309776
0.0318754
0.0318756
0.0318754
0.0318755
0.0318753
0.0318755
0.0318757
0.0318754
0.0318756
0.0318754
0.0318755
0.0318753
0.0318755
0.0318757
0.0318754
0.0318756
0.0318754
0.0318755
0.0318753
0.0318755
0.0318757
0.0318754
0.0318756
0.0318754
0.0318755
0.0318753
0.0318755
0.0318757
0.0318754
0.0318756
0.0318754
0.0318755
0.0318753
0.0318755
0.0318757
0.0318754
0.0318756
0.0318754
0.0318755
0.0318753
0.0318755
0.0318756
0.0318755
0.0318755
0.0318755
0.0318754
0.0318753
0.0318755
0.0318756
0.0318755
0.0318755
0.0318755
0.0318754
0.0318753
0.0318755
0.0318756
0.0318755
0.0318755
0.0318755
0.0318754
0.0318754
0.0318755
0.0318756
0.0318755
0.0318755
0.0318754
0.0318754
0.0318754
0.0318755
0.0318755
0.0318755
0.0318755
0.0318754
0.0318754
0.0318754
0.0318755
0.0318755
0.0318755
0.0318755
0.0318754
0.0318754
0.0318754
0.0318755
0.0318755
0.0318755
0.0318755
0.0318754
0.0318754
0.0318754
0.0318754
0.0318755
0.0318755
0.0318755
0.0318754
0.0318754
0.0318754
0.0318754
0.0318755
0.0318754
0.0318755
0.0318754
0.0318754
0.0318754
0.0318754
0.0318755
0.0576952
0.0576954
0.0576954
0.0576952
0.0576953
0.0576953
0.0576951
0.0576952
0.0576952
0.0576952
0.0576953
0.0576953
0.0576953
0.0576953
0.0576952
0.0576952
0.0576953
0.0576953
0.0576953
0.0576953
0.0576952
0.0576953
0.0576953
0.0576954
0.0576952
0.0576952
0.0576952
0.0576952
0.0576954
0.0576954
0.0576953
0.0576953
0.0576952
0.0576952
0.0576952
0.0576952
0.0576952
0.0576952
0.0576953
0.0576953
0.0576953
0.0576953
0.0576954
0.0576952
0.0576954
0.0576952
0.0576952
0.0576953
0.0576953
0.0576952
0.0576954
0.0576953
0.0576953
0.0576954
0.0576952
0.0576952
0.0576954
0.0576953
0.0576952
0.0576952
0.0576953
0.0576953
0.0576954
0.0576954
0.0576952
0.0576953
0.0576952
0.0576952
0.0576953
0.0576953
0.0576952
0.0576954
0.0576953
0.0576953
0.0576954
0.0576952
0.0576953
0.0576954
0.0576953
0.0576952
0.0576952
0.0576953
0.0576953
0.0576954
0.0576954
0.0576953
0.0576953
0.0576952
0.0576952
0.0576953
0.0576953
0.0576952
0.0576953
0.0576953
0.0576952
0.0576953
0.0576952
0.0576952
0.0576954
0.0576953
0.0576952
0.0576952
0.0576952
0.0576953
0.0576953
0.0576953
0.0576953
0.0576953
0.0576951
0.0576952
0.0576953
0.0576953
0.0576952
0.0576953
0.0576953
0.0576952
0.0576953
0.0576952
0.0576952
0.0576954
0.0576953
0.0576952
0.0576952
0.0576952
0.0576953
0.0576953
0.0576953
0.0576953
0.0576953
0.0576952
0.0576952
0.0576953
0.0576953
0.0576952
0.0576953
0.0576953
0.0576952
0.0576953
0.0576952
0.0576952
0.0576954
0.0576953
0.0576952
0.0576952
0.0576953
0.0576953
0.0576952
0.0576953
0.0576953
0.0576953
0.0576952
0.0576952
0.0576953
0.0576953
0.0576952
0.0576954
0.0576953
0.0576953
0.0576954
0.0576952
0.0576953
0.0576954
0.0576953
0.0576952
0.0576952
0.0576953
0.0576953
0.0576952
0.0576953
0.0576953
0.0576953
0.0576952
0.0576952
0.0576953
0.0576953
0.0576952
0.0576954
0.0576953
0.0576953
0.0576954
0.0576952
0.0576953
0.0576954
0.0576953
0.0576952
0.0576952
0.0576953
0.0576953
0.0576952
0.0576953
0.0576953
0.0576953
0.0576952
0.0576952
0.0576953
0.0576953
0.0576952
0.0576953
0.0576953
0.0576952
0.0576953
0.0576952
0.0576952
0.0576954
0.0576953
0.0576952
0.0576952
0.0576953
0.0576953
0.0576952
0.0576953
0.0576953
0.0576953
0.0576952
0.0576952
0.0576953
0.0576953
0.0576952
0.0576953
0.0576953
0.0576952
0.0576953
0.0576952
0.0576952
0.0576954
0.0576953
0.0576952
0.0576952
0.0576953
0.0576953
0.0576952
0.0576953
0.0576953
0.0576953
0.0576953
0.0576952
0.0576953
0.0576953
0.0576952
0.0576953
0.0576953
0.0576952
0.0576953
0.0576953
0.0576952
0.0576953
0.0576953
0.0576952
0.0576952
0.0576953
0.0576953
0.0576952
0.0576953
0.0576953
0.0576953
0.0576953
0.0576952
0.0576953
0.0576953
0.0576952
0.0576954
0.0576953
0.0576953
0.0576954
0.0576953
0.0576953
0.0576953
0.0576953
0.0576952
0.0576952
0.0576953
0.0576953
0.0576952
0.0576953
0.0576954
0.0576953
0.0576953
0.0576952
0.0576953
0.0576953
0.0576952
0.0576954
0.0576953
0.0576953
0.0576954
0.0576953
0.0576953
0.0576953
0.0576953
0.0576952
0.0576952
0.0576953
0.0576953
0.0576952
0.0576953
0.0576953
0.0576953
0.0576953
0.0576952
0.0576953
0.0576953
0.0576952
0.0576953
0.0576953
0.0576952
0.0576953
0.0576953
0.0576952
0.0576953
0.0576953
0.0576952
0.0576952
0.0576953
0.0576953
0.0576952
0.0576953
0.0576953
0.0576953
0.0576953
0.0576951
0.0576953
0.0576953
0.0576952
0.0576953
0.0576953
0.0576952
0.0576953
0.0576953
0.0576952
0.0576953
0.0576953
0.0576952
0.0576952
0.0576953
0.0576953
0.0576952
0.0576953
0.0576953
0.0576953
0.0576953
0.0576951
0.0576953
0.0576953
0.0576952
0.0576953
0.0576953
0.0576952
0.0576953
0.0576953
0.0576952
0.0576953
0.0576953
0.0576952
0.0576952
0.0576953
0.0576953
0.0576952
0.0576953
0.0576954
0.0576954
0.0576953
0.0576952
0.0576953
0.0576953
0.0576952
0.0576954
0.0576953
0.0576953
0.0576954
0.0576953
0.0576953
0.0576953
0.0576953
0.0576952
0.0576952
0.0576953
0.0576953
0.0576952
0.0576953
0.0576954
0.0576953
0.0576953
0.0576952
0.0576953
0.0576953
0.0576952
0.0576954
0.0576953
0.0576953
0.0576954
0.0576953
0.0576952
0.0576953
0.0576953
0.0576952
0.0576952
0.0576953
0.0576953
0.0576952
0.0576953
0.0576953
0.0576953
0.0576953
0.0576952
0.0576953
0.0576953
0.0576952
0.0576953
0.0576953
0.0576953
0.0576954
0.0576953
0.0576952
0.0576953
0.0576953
0.0576952
0.0576952
0.0576953
0.0576953
0.0576952
0.0623478
0.0623479
0.062348
0.062348
0.0623478
0.0623479
0.0623479
0.0623478
0.0623479
0.0623478
0.0623479
0.062348
0.0623478
0.0623478
0.062348
0.0623479
0.0623478
0.0623478
0.0623479
0.0623479
0.0623478
0.06514
0.0651401
0.0651402
0.0651402
0.06514
0.0651402
0.0651402
0.06514
0.0651401
0.06514
0.0651401
0.0651402
0.06514
0.0651401
0.0651402
0.0651401
0.06514
0.0651401
0.0651402
0.0651402
0.06514
0.06514
0.06514
0.0651402
0.0651402
0.06514
0.0651402
0.0651402
0.06514
0.0651401
0.06514
0.0651402
0.0651402
0.06514
0.0651401
0.0651402
0.06514
0.06514
0.0651401
0.0651402
0.0651402
0.06514
0.06514
0.06514
0.0651402
0.0651401
0.06514
0.0651402
0.0651402
0.0651401
0.0651401
0.06514
0.0651402
0.0651402
0.06514
0.0651401
0.0651403
0.0651401
0.06514
0.06514
0.0651402
0.0651402
0.06514
0.0651401
0.06514
0.0651402
0.0651401
0.06514
0.0651402
0.0651402
0.0651401
0.0651401
0.06514
0.0651402
0.0651403
0.06514
0.0651401
0.0651403
0.0651402
0.06514
0.06514
0.0651401
0.0651402
0.0651401
0.0651401
0.06514
0.0651402
0.0651401
0.06514
0.0651402
0.0651402
0.06514
0.0651401
0.06514
0.0651401
0.0651402
0.06514
0.0651401
0.0651403
0.0651402
0.06514
0.06514
0.0651401
0.0651402
0.0651401
0.0651401
0.06514
0.0651402
0.0651401
0.06514
0.0651402
0.0651402
0.06514
0.0651402
0.0651401
0.0651401
0.0651402
0.06514
0.0651401
0.0651403
0.0651402
0.06514
0.06514
0.0651401
0.0651402
0.0651401
0.0651401
0.06514
0.0651402
0.06514
0.06514
0.0651402
0.0651402
0.06514
0.0651402
0.0651401
0.0651401
0.0651402
0.06514
0.0651401
0.0651403
0.0651402
0.06514
0.06514
0.0651401
0.0651402
0.0651401
0.0651402
0.06514
0.0651402
0.06514
0.06514
0.0651402
0.0651401
0.06514
0.0651402
0.0651401
0.0651401
0.0651402
0.06514
0.06514
0.0651403
0.0651401
0.06514
0.06514
0.0651401
0.0651402
0.0651402
0.0651402
0.06514
0.0651402
0.0651399
0.06514
0.0651402
0.0651401
0.06514
0.0651402
0.0651401
0.0651401
0.0651402
0.06514
0.06514
0.0651403
0.0651401
0.06514
0.06514
0.0651401
0.0651402
0.0651402
0.0651403
0.06514
0.0651402
0.0651399
0.06514
0.0651402
0.0651401
0.06514
0.0651402
0.0651401
0.0651401
0.0651402
0.06514
0.06514
0.0651403
0.0651401
0.06514
0.06514
0.0651401
0.0651402
0.0651402
0.0621515
0.0608355
0.0595595
0.0608474
0.0581494
0.0569286
0.0552158
0.0540321
0.0517797
0.0508706
0.0500696
0.0509129
0.0569874
0.0582231
0.0544674
0.0516338
0.0490027
0.0510558
0.0543329
0.0555217
0.051928
0.0491395
0.0469883
0.0491578
0.0520177
0.0530551
0.0499358
0.047363
0.0450502
0.0458776
0.0548794
0.0545746
0.0540297
0.0509597
0.0464866
0.0442044
0.0515213
0.0532354
0.0551868
0.0556119
0.0601391
0.0590278
0.067567
0.0693299
0.073004
0.0730157
0.0550894
0.0587147
0.0616523
0.0744082
0.0744082
0.0544377
0.0611293
0.065799
0.0662137
0.0662137
0.051253
0.0581847
0.0582375
0.0577032
0.0597225
0.0489893
0.056198
0.0587687
0.0612588
0.0640144
0.0527098
0.0594881
0.0649584
0.0694388
0.0712275
0.0587456
0.064766
0.0696611
0.0734763
0.0750819
0.0624047
0.0676414
0.0717673
0.0751061
0.0765992
0.0619622
0.0671661
0.0712962
0.0748871
0.0766505
0.0603353
0.065902
0.070484
0.0743874
0.0762175
0.0595707
0.0608498
0.0569941
0.0543027
0.0519669
0.0548511
0.0569971
0.0582278
0.0545213
0.0518476
0.0497903
0.0540127
0.0543407
0.0555285
0.05197
0.049301
0.0475175
0.0511615
0.0520236
0.0530645
0.0499667
0.0474811
0.0453889
0.0469176
0.054884
0.0545882
0.0540568
0.051064
0.0467487
0.0447657
0.0619718
0.0671638
0.0713398
0.0749063
0.0765657
0.0624624
0.0676547
0.0718096
0.0751046
0.0765096
0.0587515
0.0647748
0.069719
0.0734991
0.075031
0.0530517
0.060157
0.065725
0.0702881
0.0723651
0.049747
0.0574869
0.0634104
0.0683856
0.0707574
0.0530305
0.0601433
0.0657616
0.0703446
0.0724144
0.0588772
0.0649058
0.0697962
0.0735679
0.0751128
0.062432
0.0676674
0.0717868
0.0751188
0.076611
0.0619659
0.0671689
0.0712981
0.0748881
0.0766509
0.0603402
0.0659066
0.0704622
0.0743682
0.0762384

SCALARS Mass_Change float 1
LOOKUP_TABLE default
0
0
0
0
0
0
0
0
0
0
0
0
0
0
0
0
0
0
0
0
0
0
0
0
0
0
0
0
0
0
0
0
0
0
0
0
0
0
0
0
0
0
0
0
0
0
0
0
0
0
0
0
0
0
0
0
0
0
0
0
0
0
0
0
0
0
0
0
0
0
0
0
0
0
0
0
0
0
0
0
0
0
0
0
0
0
0
0
0
0
0
0
0
0
0
0
0
0
0
0
0
0
0
0
0
0
0
0
0
0
0
0
0
0
0
0
0
0
0
0
0
0
0
0
0
0
0
0
0
0
0
0
0
0
0
0
0
0
0
0
0
0
0
0
0
0
0
0
0
0
0
0
0
0
0
0
0
0
0
0
0
0
0
0
0
0
0
0
0
0
0
0
0
0
0
0
0
0
0
0
0
0
0
0
0
0
0
0
0
0
0
0
0
0
0
0
0
0
0
0
0
0
0
0
0
0
0
0
0
0
0
0
0
0
0
0
0
0
0
0
0
0
0
0
0
0
0
0
0
0
0
0
0
0
0
0
0
0
0
0
0
0
0
0
0
0
0
0
0
0
0
0
0
0
0
0
0
0
0
0
0
0
0
0
0
0
0
0
0
0
0
0
0
0
0
0
0
0
0
0
0
0
0
0
0
0
0
0
0
0
0
0
0
0
0
0
0
0
0
0
0
0
0
0
0
0
0
0
0
0
0
0
0
0
0
0
0
0
0
0
0
0
0
0
0
0
0
0
0
0
0
0
0
0
0
0
0
0
0
0
0
0
0
0
0
0
0
0
0
0
0
0
0
0
0
0
0
0
0
0
0
0
0
0
0
0
0
0
0
0
0
0
0
0
0
0
0
0
0
0
0
0
0
0
0
0
0
0
0
0
0
0
0
0
0
0
0
0
0
0
0
0
0
0
0
0
0
0
0
0
0
0
0
0
0
0
0
0
0
0
0
0
0
0
0
0
0
0
0
0
0
0
0
0
0
0
0
0
0
0
0
0
0
0
0
0
0
0
0
0
0
0
0
0
0
0
0
0
0
0
0
0
0
0
0
0
0
0
0
0
0
0
0
0
0
0
0
0
0
0
0
0
0
0
0
0
0
0
0
0
0
0
0
0
0
0
0
0
0
0
0
0
0
0
0
0
0
0
0
0
0
0
0
0
0
0
0
0
0
0
0
0
0
0
0
0
0
0
0
0
0
0
0
0
0
0
0
0
0
0
0
0
0
0
0
0
0
0
0
0
0
0
0
0
0
0
0
0
0
0
0
0
0
0
0
0
0
0
0
0
0
0
0
0
0
0
0
0
0
0
0
0
0
0
0
0
0
0
0
0
0
0
0
0
0
0
0
0
0
0
0
0
0
0
0
0
0
0
0
0
0
0
0
0
0
0
0
0
0
0
0
0
0
0
0
0
0
0
0
0
0
0
0
0
0
0
0
0
0
0
0
0
0
0
0
0
0
0
0
0
0
0
0
0
0
0
0
0
0
0
0
0
0
0
0
0
0
0
0
0
0
0
0
0
0
0
0
0
0
0
0
0
0
0
0
0
0
0
0
0
0
0
0
0
0
0
0
0
0
0
0
0
0
0
0
0
0
0
0
0
0
0
0
0
0
0
0
0
0
0
0
0
0
0
0
0
0
0
0
0
0
0
0
0
0
0
0
0
0
0
0
0
0
0
0
0
0
0
0
0
0
0
0
0
0
0
0
0
0
0
0
0
0
0
0
0
0
0
0
0
0
0
0
0
0
0
0
0
0
0
0
0
0
0
0
0
0
0
0
0
0
0
0
0
0
0
0
0
0
0
0
0
0
0
0
0
0
0
0
0
0
0
0
0
0
0
0
0
0
0
0
0
0
0
0
0
0
0
0
0
0
0
0
0
0
0
0
0
0
0
0
0
0
0
0
0
0
0
0
0
0
0
0
0
0
0
0
0
0
0
0
0
0
0
0
0
0
0
0
0
0
0
0
0
0
0
0
0
0
0
0
0
0
0
0
0
0
0
0
0
0
0
0
0
0
0
0
0
0
0
0
0
0
0
0
0
0
0
0
0
0
0
0
0
0
0
0
0
0
0
0
0
0
0
0
0
0
0
0
0
0
0
0
0
0
0
0
0
0
0
0
0
0
0
0
0
0
0
0
0
0
0
0
0
0
0
0
0
0
0
0
0
0
0
0
0
0
0
0
0
0
0
0
0
0
0
0
0
0
0
0
0
0
0
0
0
0
0
0
0
0
0
0
0
0
0
0
0
0
0
0
0
0
0
0
0
0
0
0
0
0
0
0
0
0
0
0
0
0
0
0
0
0
0
0
0
0
0
0
0
0
0
0
0
0
0
0
0
0
0
0
0
0
0
0
0
0
0
0
0
0
0
0
0
0
0
0
0
0
0
0
0
0
0
0
0
0
0
0
0
0
0
0
0
0
0
0
0
0
0
0
0
0
0
0
0
0
0
0
0
0
0
0
0
0
0
0
0
0
0
0
0
0
0
0
0
0
0
0
0
0
0
0
0
0
0
0
0
0
0
0
0
0
0
0
0
0
0
0
0
0
0
0
0
0
0
0
0
0
0
0
0
0
0

VECTORS Velocity float
0 0 -0.236852
0 0 -0.268268
0 -0.0179728 -0.295545
0 -0.0397356 -0.300415
0 0 -0.292057
0 0.00835731 -0.287381
0 0 -0.305651
0 0.0177788 -0.290172
0 0 -0.30363
0 0.017606 -0.292745
0 0 -0.302678
0 0.0156446 -0.296642
0 0 -0.30539
0 0.015113 -0.304046
0 0.0450541 -0.284798
0 0.0729768 -0.256699
0 0.0350309 -0.285916
0 0.030554 -0.284757
0 0.0302155 -0.28665
0 0.0331827 -0.294199
0 0.0317593 -0.284138
0 0.068334 -0.272011
0 0.126774 -0.19988
0 0.0502084 -0.288253
0 0.0436258 -0.290923
0 0.0401529 -0.286288
0 0.0378186 -0.286209
0 0.028695 -0.259294
0 0.0970539 -0.217762
0 0.192796 -0.154161
0 0.0756972 -0.247746
0 0.0568163 -0.266353
0 0.0468772 -0.273394
0 0.0413065 -0.264852
0 0.0350353 -0.250126
0 0.112065 -0.157687
0 0.26248 -0.0477093
0 0.0894976 -0.19736
0 0.069747 -0.22929
0 0.0499763 -0.247497
0 0.0399179 -0.246721
0 0.0431278 -0.243668
0 0.149436 -0.113688
0 0.403244 0.0276071
0 0.120234 -0.134168
0 0.087429 -0.16244
0 0.0543388 -0.19334
0 0.0418254 -0.227007
0 0.0539445 -0.24015
0 0.184643 -0.0242151
0 0.529978 0.161815
0 0.107978 -0.0757016
0 0.0881175 -0.0987888
0 0.0681816 -0.138124
0 0.054566 -0.190883
0 0.0641494 -0.217899
0 0.188418 0.035237
0 0.465474 0.274411
0 0.132887 -0.0545991
0 0.114394 -0.0726536
0 0.0993083 -0.0944838
0 0.0685668 -0.122417
0 0.0621223 -0.142057
0 0.112759 0.0232346
0 0.247572 0.13887
0 0.120474 -0.0133406
0 0.099449 -0.0335337
0 0.0681031 -0.0407526
0 0.0367913 -0.0446865
0 0.0286586 -0.0520746
0 0.00317519 0.0073464
0 0.0156772 0.0147931
0 0.0172095 0.00371375
0 0.017898 -0.00232569
0 0.0136295 -0.00655085
0 0.00763623 -0.00752761
0 0.00754682 -0.0098525
0 0.00099838 0.000365512