# vtk DataFile Version 3.0
vtk output
ASCII
DATASET UNSTRUCTURED_GRID
FIELD FieldData 2
TIME 1 1 double
0.803105
CYCLE 1 1 int
0
POINTS 992 float
25.3994 0.000487488 -4.71497e-05
25.3995 3.17442 0.000872131
25.4006 6.34995 -3.95203e-05
25.3996 9.52461 0.000742798
25.4009 12.6993 0.000120941
25.4009 15.8754 -0.000665344
25.3997 19.0497 -0.000296234
25.3982 0.000477142 3.16415
25.3994 3.17533 3.16356
25.4017 6.35242 3.16497
25.4036 9.52744 3.16383
25.4051 12.7044 3.16201
25.4091 15.8827 3.15847
25.4115 19.0618 3.14704
25.3965 -0.000367554 6.32306
25.3977 3.17687 6.32228
25.4018 6.35433 6.322
25.4068 9.53206 6.32139
25.4114 12.7112 6.3173
25.4185 15.8895 6.31155
25.4217 19.0688 6.30772
25.3967 -5.58777e-05 9.47579
25.3984 3.17693 9.47584
25.4026 6.3555 9.47575
25.4086 9.53438 9.47447
25.4171 12.7143 9.47336
25.4215 15.893 9.47087
25.4226 19.0717 9.46837
25.4041 0.000678284 12.6311
25.4055 3.17648 12.6298
25.4079 6.3551 12.6279
25.4115 9.53347 12.6293
25.4174 12.7133 12.6291
25.424 15.8928 12.6321
25.4261 19.0725 12.6318
25.4107 0.000727997 15.7902
25.4103 3.17667 15.7874
25.4097 6.35326 15.7884
25.4136 9.53132 15.7861
25.4159 12.7093 15.7822
25.4179 15.888 15.7864
25.4217 19.0663 15.7945
25.4093 -0.000628906 18.9532
25.4098 3.1752 18.9542
25.4109 6.35544 18.949
25.4108 9.53091 18.9443
25.4117 12.7063 18.9465
25.411 15.8814 18.9483
25.4115 19.0559 18.9492
25.4094 -0.000940765 22.1243
25.4082 3.18059 22.1136
25.4091 6.35515 22.1144
25.4088 9.53026 22.1176
25.4093 12.7055 22.1178
25.4096 15.8804 22.1199
25.4084 19.0549 22.1207
25.4058 0.00036322 25.2865
25.4057 3.17808 25.2849
25.407 6.35282 25.2873
25.4074 9.52863 25.2878
25.4063 12.7028 25.291
25.4068 15.8783 25.2925
25.4078 19.0525 25.2939
25.4043 -0.000300446 28.4558
25.4046 3.17686 28.4582
25.404 6.35172 28.4596
25.4041 9.52758 28.4607
25.4044 12.7019 28.4624
25.4039 15.8778 28.4635
25.4046 19.0517 28.4656
25.4013 0.000963257 31.6279
25.4028 3.17455 31.6286
25.4024 6.35022 31.6317
25.4011 9.52507 31.6325
25.4019 12.7001 31.6343
25.4013 15.875 31.6359
25.402 19.0507 31.6375
25.3995 0.000691925 34.797
25.399 3.17306 34.8007
25.3992 6.34964 34.8031
25.3998 9.52307 34.8047
25.4005 12.6984 34.8048
25.4046 15.877 34.8
25.4081 19.0565 34.7922
25.3995 0.000886047 37.9715
25.3989 3.17527 37.9674
25.3996 6.35106 37.9675
25.4024 9.52713 37.9669
25.405 12.7044 37.9622
25.4093 15.8832 37.9583
25.413 19.0613 37.954
25.4004 0.000110565 41.1329
25.4014 3.1763 41.1339
25.403 6.35252 41.13
25.4072 9.5308 41.1263
25.4135 12.7082 41.1224
25.4152 15.8855 41.1195
25.4147 19.0634 41.1181
25.4003 2.68555e-06 44.2965
25.4021 3.17725 44.2933
25.4042 6.35685 44.2914
25.4098 9.53402 44.2884
25.4162 12.7116 44.2862
25.4157 15.8887 44.2845
25.4163 19.0656 44.2838
25.3981 0.000810944 47.4547
25.4 3.17982 47.4532
25.4043 6.35661 47.4535
25.4106 9.53465 47.4524
25.4159 12.7131 47.4515
25.4168 15.8901 47.4494
25.4168 19.0652 47.4496
25.3967 9.05151e-05 50.6154
25.3996 3.17923 50.614
25.4039 6.35633 50.6147
25.4117 9.53381 50.6157
25.4166 12.7135 50.6145
25.4167 15.8888 50.615
25.4155 19.0661 50.6156
25.3967 -0.000820221 53.7765
25.3989 3.17751 53.7772
25.4055 6.35602 53.7771
25.4123 9.53331 53.7779
25.4156 12.7113 53.7804
25.4169 15.8884 53.7798
25.4162 19.0658 53.7815
25.3985 0.00058313 56.9407
25.4004 3.17846 56.9415
25.4052 6.35499 56.9418
25.4124 9.53311 56.9435
25.4149 12.7098 56.9453
25.4163 15.8877 56.9467
25.4152 19.0628 56.9491
25.399 -0.00011496 60.1068
25.4009 3.17755 60.1063
25.4059 6.35442 60.1066
25.4098 9.53166 60.1093
25.4135 12.7072 60.1098
25.4122 15.885 60.1131
25.4136 19.0611 60.1138
25.3997 0.000320374 63.2722
25.4018 3.17681 63.2741
25.4052 6.35209 63.2726
25.4078 9.52981 63.2746
25.4105 12.7069 63.2764
25.4095 15.8821 63.2794
25.4112 19.0588 63.2825
25.4003 0.000625946 66.4397
25.4015 3.17686 66.4401
25.403 6.3521 66.4415
25.4059 9.52738 66.4421
25.4073 12.7047 66.4445
25.4062 15.8804 66.4463
25.4081 19.0573 66.4482
25.4007 -0.00070166 69.6082
25.4003 3.17594 69.6094
25.4012 6.35077 69.6092
25.4041 9.52792 69.6105
25.4044 12.7031 69.6124
25.4051 15.8799 69.613
25.4078 19.0557 69.6168
25.4058 0.000882965 72.7767
25.4039 3.17584 72.7771
25.4061 6.35133 72.7787
25.4075 9.52577 72.7792
25.407 12.703 72.7814
25.4056 15.8769 72.7808
25.408 19.054 72.7824
25.4089 0.000419373 75.9471
25.4096 3.17572 75.9468
25.4092 6.35071 75.9477
25.4085 9.52548 75.948
25.4079 12.7017 75.9496
25.4079 15.8779 75.9508
25.4088 19.0532 75.9496
25.4095 0.000667816 79.1165
25.4086 3.17581 79.1184
25.4087 6.34925 79.1172
25.4083 9.52567 79.1173
25.4072 12.7009 79.1174
25.4076 15.8758 79.1164
25.4075 19.0533 79.1187
25.4075 -0.000757935 82.2891
25.4081 3.17588 82.2883
25.4073 6.34912 82.2885
25.4074 9.52618 82.2864
25.4059 12.7004 82.2872
25.4047 15.8761 82.2849
25.4041 19.0513 82.2825
25.4046 -0.000726532 85.457
25.4056 3.17528 85.4594
25.4061 6.35111 85.4563
25.4048 9.52639 85.4565
25.4044 12.7012 85.4542
25.4044 15.8756 85.4547
25.4047 19.0511 85.4537
25.4041 -0.000268738 88.6292
25.4042 3.17654 88.6281
25.4036 6.35198 88.6265
25.4037 9.52612 88.6267
25.4033 12.7011 88.6263
25.4038 15.8752 88.627
25.4039 19.0504 88.6258
25.4033 2.41394e-05 91.7976
25.4034 3.17719 91.7992
25.4038 6.35162 91.7989
25.4028 9.52594 91.7981
25.4034 12.701 91.798
25.4035 15.8771 91.7977
25.4034 19.0513 91.7971
25.4045 8.05664e-06 94.9684
25.4049 3.17574 94.9695
25.403 6.35253 94.9713
25.4042 9.52576 94.9707
25.403 12.7016 94.9712
25.404 15.8762 94.97
25.4035 19.052 94.9709
25.4024 -0.000974701 98.1393
25.4035 3.17681 98.1397
25.4026 6.35213 98.1412
25.4035 9.52622 98.1432
25.4027 12.7012 98.1428
25.4025 15.876 98.1421
25.4026 19.0521 98.1418
25.404 9.97925e-05 101.311
25.4024 3.17588 101.309
25.4029 6.35092 101.312
25.4021 9.52709 101.315
25.4032 12.7015 101.313
25.4024 15.8762 101.314
25.4015 19.0527 101.313
25.4038 -8.63342e-05 104.478
25.4034 3.17628 104.48
25.4022 6.35128 104.479
25.4014 9.52802 104.486
25.4027 12.7027 104.486
25.4023 15.8776 104.485
25.4042 19.0546 104.48
25.4041 -0.000309937 107.651
25.4028 3.17599 107.65
25.4007 6.35115 107.651
25.3998 9.52604 107.65
25.3991 12.7032 107.653
25.4019 15.8796 107.651
25.4034 19.0543 107.651
25.4026 0.000607208 110.82
25.4029 3.17497 110.821
25.4019 6.35182 110.82
25.3964 9.52628 110.82
25.3968 12.7031 110.819
25.4001 15.8798 110.82
25.4045 19.0544 110.822
25.4048 -0.000131287 113.99
25.4061 3.17639 113.99
25.4049 6.35222 113.991
25.3994 9.52784 113.989
25.3978 12.7023 113.99
25.3997 15.8784 113.99
25.4037 19.054 113.992
25.4073 5.51453e-05 117.162
25.4072 3.17657 117.162
25.4058 6.35124 117.16
25.4009 9.52676 117.16
25.3989 12.703 117.159
25.4 15.878 117.162
25.4026 19.0533 117.161
25.4098 0.000881836 120.332
25.4081 3.17703 120.33
25.4043 6.35123 120.331
25.3991 9.52815 120.33
25.3979 12.7035 120.332
25.4027 15.8783 120.331
25.402 19.0532 120.332
25.409 0.000987946 123.5
25.408 3.17673 123.501
25.4056 6.35168 123.501
25.3997 9.5269 123.501
25.3977 12.7022 123.502
25.4006 15.8776 123.503
25.4008 19.054 123.502
25.4076 -0.000118225 126.671
25.4085 3.17638 126.671
25.4063 6.35062 126.671
25.4007 9.5267 126.672
25.3985 12.7026 126.672
25.4001 15.8774 126.672
25.401 19.0547 126.674
25.4104 0.000667328 129.838
25.4097 3.17602 129.84
25.4086 6.35207 129.839
25.4023 9.52802 129.841
25.4006 12.7026 129.84
25.402 15.8777 129.842
25.4004 19.054 129.844
25.4155 0.000677124 133.009
25.4144 3.17577 133.009
25.4111 6.35121 133.01
25.4073 9.52645 133.01
25.4043 12.7022 133.012
25.4036 15.8775 133.011
25.3999 19.054 133.012
25.4202 -0.000363739 136.18
25.4182 3.17561 136.179
25.4163 6.35034 136.18
25.412 9.52679 136.18
25.4099 12.7018 136.18
25.4062 15.8787 136.181
25.4011 19.0547 136.181
25.4246 -0.000517273 139.35
25.4243 3.17686 139.35
25.4226 6.35141 139.35
25.4206 9.52682 139.351
25.4147 12.7027 139.349
25.4075 15.8794 139.348
25.3996 19.0562 139.349
25.4303 0.000468964 142.521
25.4307 3.17636 142.52
25.4299 6.35373 142.521
25.4246 9.5283 142.521
25.4164 12.7051 142.517
25.4064 15.8818 142.517
25.3968 19.0564 142.517
25.4346 0.000669678 145.69
25.4359 3.17785 145.691
25.4347 6.35506 145.692
25.4274 9.5326 145.69
25.4189 12.7074 145.69
25.4084 15.8825 145.69
25.3984 19.0567 145.689
25.4395 0.000520905 148.858
25.4393 3.17871 148.86
25.4381 6.35627 148.859
25.4286 9.53186 148.862
25.42 12.7074 148.862
25.4106 15.8825 148.861
25.4 19.058 148.859
25.4402 0.00051532 152.027
25.4392 3.17843 152.026
25.4366 6.35519 152.028
25.4314 9.53294 152.032
25.4216 12.7094 152.034
25.4114 15.8831 152.033
25.4012 19.0593 152.032
25.4394 0.000678803 155.193
25.437 3.17696 155.195
25.4344 6.35518 155.196
25.4293 9.53173 155.2
25.4233 12.7086 155.204
25.4135 15.8832 155.205
25.4028 19.0583 155.203
25.4336 0.000953247 158.362
25.4336 3.17686 158.362
25.434 6.35409 158.364
25.4299 9.53098 158.367
25.4249 12.7096 158.371
25.4149 15.8858 158.376
25.4047 19.0607 158.374
25.4271 0.000110626 161.524
25.4258 3.17836 161.527
25.4279 6.35677 161.529
25.4277 9.53477 161.532
25.4229 12.712 161.536
25.4161 15.8867 161.548
25.4055 19.06 161.548
25.4105 -0.000676697 164.669
25.4118 3.18958 164.669
25.4105 6.38065 164.667
25.4059 9.57479 164.668
25.3886 12.772 164.669
25.3455 15.9692 164.674
25.3476 19.1675 164.658
25.3976 -0.000984406 167.751
25.3923 3.21931 167.747
25.383 6.4436 167.74
25.3463 9.67827 167.733
25.2766 12.9245 167.726
25.0866 16.1942 167.713
25.2259 19.4993 167.676
25.396 0.000121582 170.718
25.3929 3.26969 170.716
25.359 6.54728 170.704
25.2747 9.85006 170.684
25.1163 13.1985 170.652
24.593 16.6056 170.573
24.9843 20.2078 170.52
25.4044 -0.000625824 173.546
25.3965 3.32911 173.541
25.3693 6.67968 173.521
25.2155 10.0759 173.477
25.026 13.5634 173.407
24.0257 17.1016 173.258
24.5607 21.0649 173.138
25.4077 0.000750427 176.209
25.4133 3.38887 176.196
25.3918 6.81115 176.162
25.2199 10.3053 176.102
25.0326 13.922 175.986
23.6915 17.5465 175.838
24.0385 21.7327 175.645
25.4275 -0.00030191 178.702
25.4246 3.42723 178.688
25.4151 6.89807 178.636
25.2376 10.4619 178.549
25.093 14.1896 178.425
[...]
POINT_DATA 992
SCALARS NODE_ID int 1
LOOKUP_TABLE default
1
2
3
4
5
6
7
8
9
10
11
12
13
14
15
16
17
18
19
20
21
22
23
24
25
26
27
28
29
30
31
32
33
34
35
36
37
38
39
40
41
42
43
44
45
46
47
48
49
50
51
52
53
54
55
56
57
58
59
60
61
62
63
64
65
66
67
68
69
70
71
72
73
74
75
76
77
78
79
80
81
82
83
84
85
86
87
88
89
90
91
92
93
94
95
96
97
98
99
100
101
102
103
104
105
106
107
108
109
110
111
112
113
114
115
116
117
118
119
120
121
122
123
124
125
126
127
128
129
130
131
132
133
134
135
136
137
138
139
140
141
142
143
144
145
146
147
148
149
150
151
152
153
154
155
156
157
158
159
160
161
162
163
164
165
166
167
168
169
170
171
172
173
174
175
176
177
178
179
180
181
182
183
184
185
186
187
188
189
190
191
192
193
194
195
196
197
198
199
200
201
202
203
204
205
206
207
208
209
210
211
212
213
214
215
216
217
218
219
220
221
222
223
224
225
226
227
228
229
230
231
232
233
234
235
236
237
238
239
240
241
242
243
244
245
246
247
248
249
250
251
252
253
254
255
256
257
258
259
260
261
262
263
264
265
266
267
268
269
270
271
272
273
274
275
276
277
278
279
280
281
282
283
284
285
286
287
288
289
290
291
292
293
294
295
296
297
298
299
300
301
302
303
304
305
306
307
308
309
310
311
312
313
314
315
316
317
318
319
320
321
322
323
324
325
326
327
328
329
330
331
332
333
334
335
336
337
338
339
340
341
342
343
344
345
346
347
348
349
350
351
352
353
354
355
356
357
358
359
360
361
362
363
364
365
366
367
368
369
370
371
372
373
374
375
376
377
378
379
380
381
382
383
384
385
386
387
388
389
390
391
392
393
394
395
396
397
398
399
400
401
402
403
404
405
406
407
408
409
410
411
412
413
414
415
416
417
418
419
420
421
422
423
424
425
426
427
428
429
430
431
432
433
434
435
436
437
438
439
440
441
442
443
444
445
446
447
448
449
450
451
452
453
454
455
456
457
458
459
460
461
462
463
464
465
466
467
468
469
470
471
472
473
474
475
476
477
478
479
480
481
482
483
484
485
486
487
488
489
490
491
492
493
494
495
496
497
498
499
500
501
502
503
504
505
506
507
508
509
510
511
512
513
514
515
516
517
518
519
520
521
522
523
524
525
526
527
528
529
530
531
532
533
534
535
536
537
538
539
540
541
542
543
544
545
546
547
548
549
550
551
552
553
554
555
556
557
558
559
560
561
562
563
564
565
566
567
568
569
570
571
572
573
574
575
576
577
578
579
580
581
582
583
584
585
586
587
588
589
590
591
592
593
594
595
596
597
598
599
600
601
602
603
604
605
606
607
608
609
610
611
612
613
614
615
616
617
618
619
620
621
622
623
624
625
626
627
628
629
630
631
632
633
634
635
636
637
638
639
640
641
642
643
644
645
646
647
648
649
650
651
652
653
654
655
656
657
658
659
660
661
662
663
664
665
666
667
668
669
670
671
672
673
674
675
676
677
678
679
680
681
682
683
684
685
686
687
688
689
690
691
692
693
694
695
696
697
698
699
700
701
702
703
704
705
706
707
708
709
710
711
712
713
714
715
716
717
718
719
720
721
722
723
724
725
726
727
728
729
730
731
732
733
734
735
736
737
738
739
740
741
742
743
744
745
746
747
748
749
750
751
752
753
754
755
756
757
758
759
760
761
762
763
764
765
766
767
768
769
770
771
772
773
774
775
776
777
778
779
780
781
782
783
784
785
786
787
788
789
790
791
792
793
794
795
796
797
798
799
800
801
802
803
804
805
806
807
808
809
810
811
812
813
814
815
816
817
818
819
820
821
822
823
824
825
826
827
828
829
830
831
832
833
834
835
836
837
838
839
840
841
842
843
844
845
846
847
848
849
850
851
852
853
854
855
856
857
858
859
860
861
862
863
864
865
866
867
868
869
870
871
872
873
874
875
876
877
878
879
880
881
882
883
884
885
886
887
888
889
890
891
892
893
894
895
896
897
898
899
900
901
902
903
904
905
906
907
908
909
910
911
912
913
914
915
916
917
918
919
920
921
922
923
924
925
926
927
928
929
930
931
932
933
934
935
936
937
938
939
940
941
942
943
944
945
946
947
948
949
950
951
952
953
954
955
956
957
958
959
960
961
962
963
964
965
966
967
968
969
970
971
972
973
974
975
976
977
978
979
980
981
982
983
985
986
987
988
0
0
0
0
0

SCALARS Time_Step float 1
LOOKUP_TABLE default
0.00524258
0.00524302
0.00524297
0.00524266
0.00524286
0.00524205
0.00524127
0.00524362
0.00524346
0.00524267
0.00524229
0.00524253
0.00524257
0.00524231
0.0052446
0.00524434
0.00524342
0.00524318
0.00524311
0.0052434
0.00524355
0.00524432
0.00524433
0.00524421
0.00524422
0.00524423
0.00524454
0.00524424
0.00524284
0.00524334
0.00524376
0.00524285
0.00524311
0.00524434
0.00524435
0.0052423
0.00524329
0.00524334
0.00524196
0.00524265
0.0052429
0.0052428
0.00524347
0.00524408
0.00524371
3.41034e+10
3.41059e+10
3.41026e+10
3.41022e+10
0.00524157
3.41058e+10
3.41044e+10
3.41046e+10
3.41057e+10
3.41047e+10
3.41046e+10
0.00524145
3.41052e+10
3.41073e+10
3.41052e+10
3.41047e+10
3.41046e+10
3.41059e+10
0.00524308
3.41038e+10
3.41074e+10
3.41058e+10
3.41039e+10
3.41033e+10
3.4104e+10
0.00524282
3.41015e+10
3.41044e+10
3.41025e+10
3.41035e+10
3.41052e+10
3.41058e+10
0.00524324
3.41053e+10
3.41043e+10
3.40999e+10
3.41031e+10
0.00524395
0.00524356
0.00524311
0.00524334
0.00524308
0.00524268
0.00524326
0.005244
0.00524384
0.00524311
0.0052437
0.00524431
0.00524414
0.00524403
0.00524418
0.00524423
0.00524408
0.00524451
0.00524458
0.00524468
0.00524487
0.00524434
0.00524416
0.00524387
0.00524401
0.00524408
0.00524462
0.00524445
0.00524379
0.00524418
0.00524355
0.00524367
0.00524378
0.00524447
0.00524406
0.00524353
0.00524406
0.00524361
0.0052441
0.00524444
0.00524463
0.0052446
0.00524445
0.00524448
0.00524443
0.00524437
0.00524449
0.00524417
0.00524435
0.00524449
0.00524432
0.00524483
0.00524407
0.00524387
0.00524391
0.00524378
0.005244
0.00524428
0.00524393
0.00524364
0.0052442
0.00524495
0.00524423
0.00524397
0.0052443
0.00524441
0.00524414
0.00524438
0.00524484
0.00524446
0.00524386
0.00524399
0.0052443
0.00524402
0.00524428
0.00524452
0.00524401
0.00524378
0.00524422
0.00524391
0.0052438
0.00524415
0.00524468
0.00524436
0.00524438
0.00524431
0.00524472
0.00524433
0.00524411
0.00524445
0.00524428
0.00524447
0.00524428
0.00524548
0.00524459
0.00524453
0.00524491
0.00524384
0.00524378
0.00524408
0.00524561
0.00524445
0.00524432
0.00524458
0.00524373
0.00524375
3.41031e+10
0.00524466
0.00524416
0.0052441
0.005244
3.4101e+10
3.41048e+10
3.41058e+10
0.00524461
3.41064e+10
3.41032e+10
3.4103e+10
3.41028e+10
3.41023e+10
3.41048e+10
0.00524469
3.41058e+10
3.41029e+10
3.4104e+10
3.41067e+10
3.41051e+10
3.41048e+10
0.00524481
0.00524441
3.4102e+10
3.41044e+10
3.41081e+10
3.41077e+10
3.41063e+10
0.00524523
0.00524416
0.00524306
3.41013e+10
3.41019e+10
3.41049e+10
3.41054e+10
0.00524497
0.0052439
0.00524198
3.40998e+10
3.40999e+10
3.41034e+10
3.41022e+10
0.00524523
0.00524446
0.00524255
3.4101e+10
3.41008e+10
3.41021e+10
0.00524345
0.00524512
0.00524492
0.00524414
0.00524376
0.00524422
0.00524408
0.00524429
0.0052441
0.00524447
0.00524444
0.00524419
0.00524481
0.00524465
0.00524465
0.00524519
0.00524485
0.00524413
0.00524412
0.00524453
0.00524445
0.00524424
0.00524554
0.00524448
0.00524371
0.00524437
0.005244
0.00524376
0.00524392
0.00524442
0.00524405
0.0052444
0.00524499
0.0052443
0.00524417
0.00524431
0.00524486
0.0052444
0.00524454
0.00524487
0.00524432
0.00524459
0.00524486
0.00524412
0.00524379
0.00524356
0.00524369
0.00524333
0.00524403
0.00524482
0.00524316
0.00524339
0.00524344
0.00524347
0.00524338
0.0052437
0.00524421
0.00524391
0.00524403
0.0052443
0.00524407
0.00524409
0.00524435
0.00524422
0.00524455
0.00524409
0.00524431
0.00524452
0.00524444
0.0052445
0.00524422
0.00524504
0.00524418
0.00524369
0.00524449
0.00524485
0.00524432
0.00524397
0.00524478
0.00524445
0.00524351
0.00524342
3.41085e+10
3.41091e+10
3.41058e+10
0.00524391
0.0052439
0.0052436
3.41022e+10
3.41054e+10
3.41038e+10
3.41017e+10
0.00524424
0.00524396
0.00524322
3.41056e+10
3.41051e+10
3.41035e+10
3.41033e+10
0.00524428
0.00524411
0.0052428
0.00524242
3.41013e+10
3.41036e+10
3.41047e+10
0.00524354
0.00524395
0.00524313
0.00524193
3.40998e+10
3.41005e+10
3.41016e+10
0.00524283
0.00524307
0.0052421
0.00524111
0.00524006
3.41042e+10
3.41035e+10
0.00524089
0.00523814
0.00523155
0.00522443
0.00521426
3.41051e+10
3.41048e+10
0.00523666
0.00522724
0.00520644
0.00518146
0.00514775
0.00511326
0.00509447
0.00522436
0.00520729
0.00516929
0.005119
0.00504614
0.00495366
0.004891
0.00520335
0.00517932
0.00512526
0.00504887
0.0049351
0.00479188
0.00463013
0.00517179
0.00514386
0.0050807
0.00499177
0.00486579
0.00470085
0.00447151
0.00513151
0.00510891
0.0050521
0.00496663
0.00485446
0.00469932
0.00451572
0.00508587
0.00506738
0.00502009
0.00495642
0.00487626
0.00477159
0.0046535
0.00503616
0.00500792
0.00494045
0.00485873
0.00478612
0.00475801
0.00480806
0.00498163
0.00495402
0.00487667
0.00475368
0.00461736
0.00457789
0.00464757
0.00490412
0.00489455
0.00486258
0.00478232
0.00462788
0.0044753
0.00445204
0.00478347
0.00479342
0.00482143
0.00484119
0.00479439
0.00466518
0.00461396
0.00463861
0.00465837
0.00471573
0.00479095
0.00484229
0.00483854
0.00480619
0.00450364
0.0045238
0.00458615
0.0046591
0.00470151
0.00470464
0.00470079
0.00444199
0.00446216
0.00452519
0.00458833
0.00460746
0.00458645
0.00459192
0.00524195
0.00524249
0.00524252
0.00524267
0.00524412
0.00524481
0.00524368
0.00524326
0.00524209
0.00524235
0.00524285
0.00524302
0.00524389
0.00524478
0.00524454
0.00524445
0.00524324
0.00524342
0.00524339
0.00524349
0.00524369
0.00524427
0.00524481
0.00524497
0.0052443
0.00524412
0.00524313
0.00524397
0.00524431
0.00524364
0.005244
0.00524453
0.00524446
0.00524368
0.00524225
0.00524259
0.00524365
0.00524358
0.00524387
0.00524452
0.00524357
0.00524331
0.00524262
0.00524196
0.00524239
0.00524349
0.00524415
0.00524438
3.41031e+10
3.41047e+10
0.00524326
0.00524316
0.00524313
0.00524299
0.00524333
0.00524419
3.41058e+10
3.41082e+10
3.41057e+10
3.40996e+10
3.41038e+10
3.41049e+10
0.00524217
0.00524353
3.41077e+10
3.41059e+10
3.41056e+10
3.41044e+10
3.41044e+10
3.41018e+10
3.41055e+10
0.00524077
3.41042e+10
3.41009e+10
3.41037e+10
3.41067e+10
3.41031e+10
3.41015e+10
3.41071e+10
0.00524082
3.41039e+10
3.41015e+10
3.41011e+10
3.41023e+10
3.41039e+10
3.41053e+10
3.41069e+10
0.00524355
0.00524282
0.00524314
3.41015e+10
3.41002e+10
3.41035e+10
3.41033e+10
3.41055e+10
0.00524479
0.00524356
0.00524364
0.00524305
0.00524282
0.0052432
0.00524302
0.00524367
0.00524458
0.00524458
0.00524456
0.00524379
0.00524355
0.00524388
0.00524392
0.00524377
0.00524381
0.0052446
0.0052448
0.00524426
0.00524441
0.00524482
0.00524475
0.00524411
0.00524343
0.00524471
0.00524465
0.00524431
0.00524477
0.00524475
0.0052448
0.00524417
0.00524303
0.00524455
0.00524466
0.00524381
0.00524372
0.00524356
0.00524429
0.00524483
0.00524417
0.00524451
0.00524453
0.00524368
0.00524342
0.00524369
0.0052442
0.00524479
0.00524474
0.00524469
0.00524463
0.00524406
0.00524374
0.00524449
0.00524491
0.00524486
0.00524495
0.0052448
0.00524489
0.00524435
0.00524338
0.0052438
0.00524471
0.00524457
0.00524438
0.00524432
0.00524448
0.00524426
0.00524365
0.00524382
0.00524421
0.00524374
0.00524334
0.00524444
0.00524451
0.00524434
0.00524433
0.00524461
0.00524469
0.00524427
0.00524385
0.0052443
0.00524421
0.00524467
0.00524485
0.00524492
0.00524508
0.00524458
0.00524398
0.00524377
0.00524404
0.00524466
0.00524432
0.00524396
0.00524431
0.00524429
0.00524421
0.00524371
0.00524383
0.00524403
0.00524393
0.00524405
0.00524447
0.00524453
0.00524459
0.00524385
0.0052436
0.0052435
0.0052439
0.00524448
0.00524479
0.00524498
0.00524521
3.41046e+10
3.41061e+10
3.41047e+10
0.00524316
0.0052442
0.00524445
0.00524467
0.00524529
3.41047e+10
3.41049e+10
3.41051e+10
0.00524282
0.00524428
0.00524494
0.00524447
0.00524475
3.4106e+10
3.41059e+10
3.41058e+10
0.00524366
0.00524409
0.00524478
0.00524433
0.0052442
3.41065e+10
3.41044e+10
3.41031e+10
3.41046e+10
0.00524429
0.00524409
0.0052439
0.00524388
3.41036e+10
3.41016e+10
3.41013e+10
3.41036e+10
0.00524425
0.0052442
0.00524413
0.00524383
3.41014e+10
3.41037e+10
3.41064e+10
3.41048e+10
3.41035e+10
0.00524473
0.00524481
0.00524403
3.40987e+10
3.41006e+10
3.41015e+10
3.41022e+10
3.4102e+10
0.00524427
0.00524447
0.00524404
0.00524401
0.00524378
0.00524316
0.00524355
0.00524345
0.00524383
0.00524411
0.00524389
0.00524519
0.00524453
0.00524403
0.00524415
0.00524427
0.00524461
0.00524449
0.0052445
0.00524493
0.00524426
0.00524399
0.00524386
0.00524469
0.00524472
0.00524421
0.00524472
0.00524429
0.00524452
0.00524448
0.00524369
0.00524427
0.00524451
0.00524396
0.0052444
0.00524376
0.00524454
0.005245
0.00524435
0.0052444
0.0052445
0.00524412
0.00524418
0.00524395
0.00524377
0.00524387
0.00524479
0.00524515
0.00524455
0.00524446
0.00524458
0.00524485
0.00524441
0.00524387
0.00524445
0.00524482
0.00524417
0.00524381
0.00524405
0.00524415
0.00524373
0.00524388
0.00524378
0.00524402
0.00524401
0.00524364
0.0052438
0.00524386
0.00524331
0.0052435
0.00524362
0.00524354
0.00524376
0.00524393
0.00524419
0.00524454
0.00524434
0.00524417
0.00524389
0.00524359
0.00524409
0.0052441
0.00524395
0.00524387
0.00524303
0.00524293
0.00524355
0.00524401
0.00524454
0.00524456
0.00524423
0.00524335
3.41046e+10
3.41035e+10
0.00524293
0.00524381
0.00524414
0.00524471
0.0052444
3.41054e+10
3.41071e+10
3.41049e+10
0.00524366
0.00524386
0.00524412
0.00524468
0.00524434
3.41029e+10
3.41054e+10
3.41054e+10
3.41067e+10
0.0052441
0.00524424
0.00524433
0.00524418
3.4102e+10
3.41048e+10
3.41038e+10
3.41026e+10
0.00524413
0.00524414
0.005244
0.00524383
3.41025e+10
3.41055e+10
3.41027e+10
3.40997e+10
3.41025e+10
0.00524342
0.00524381
0.00524371
3.41008e+10
3.40992e+10
3.40994e+10
3.41033e+10
3.41038e+10
0.00524258
0.00524331
0.00524312
3.41033e+10
3.40995e+10
3.40993e+10
3.41054e+10
3.41044e+10
0.00524045
0.00524167
0.00524135
0.005197
0.00519166
0.00520765
0.00521589
0.00521188
0.00521892
0.00523048
0.00523493
0.00510425
0.00512624
0.00516993
0.0051791
0.0051602
0.00516933
0.00520246
0.00522304
0.00493505
0.00499831
0.00505152
0.00505286
0.00503845
0.00506893
0.00514629
0.00519797
0.00465447
0.00477083
0.00481314
0.00480307
0.0048095
0.00489637
0.0050513
0.00514915
0.00448906
0.00457975
0.00458246
0.00458553
0.00464423
0.00479755
0.00497944
0.00504265
0.00451319
0.00446185
0.00440428
0.00444463
0.00459895
0.00482339
0.00493805
0.00488922
0.00461217
0.00442959
0.00432238
0.00436919
0.00460781
0.00489528
0.00488373
0.00476545
0.00477885
0.00457507
0.00442388
0.00444795
0.00469213
0.00496807
0.00487013
0.0047631
0.0049094
0.00487676
0.00472461
0.00473692
0.00488346
0.0049154
0.00481723
0.00484635
0.00476951
0.00514093
0.00516875
0.00517054
0.00503658
0.00478193
0.00476843
0.00490472
0.00480649
0.00501994
0.00507598
0.00507119
0.00494489
0.00476698
0.00478202
0.00488643
0.00481459
0.00486485
0.0049137
0.00491459
0.00484933
0.00477119
0.00477626
0.00481668
0.00470053
0.00471931
0.00476817
0.00479637
0.00479316
0.00476737
0.0047334
0.00471857
0.00461902
0.00464094
0.00469382
0.00474504
0.00477044
0.00476066
0.00470404
0.00466431
1e+06
1e+06
1e+06
1e+06
1e+06
1e+06
1e+06
1e+06
0.00498199
1.27279e+11
0.00569318
0.00529236
0
0
0
0
0

SCALARS Mass_Change float 1
LOOKUP_TABLE default
0
0
0
0
0
0
0
0
0
0
0
0
0
0
0
0
0
0
0
0
0
0
0
0
0
0
0
0
0
0
0
0
0
0
0
0
0
0
0
0
0
0
0
0
0
0
0
0
0
0
0
0
0
0
0
0
0
0
0
0
0
0
0
0
0
0
0
0
0
0
0
0
0
0
0
0
0
0
0
0
0
0
0
0
0
0
0
0
0
0
0
0
0
0
0
0
0
0
0
0
0
0
0
0
0
0
0
0
0
0
0
0
0
0
0
0
0
0
0
0
0
0
0
0
0
0
0
0
0
0
0
0
0
0
0
0
0
0
0
0
0
0
0
0
0
0
0
0
0
0
0
0
0
0
0
0
0
0
0
0
0
0
0
0
0
0
0
0
0
0
0
0
0
0
0
0
0
0
0
0
0
0
0
0
0
0
0
0
0
0
0
0
0
0
0
0
0
0
0
0
0
0
0
0
0
0
0
0
0
0
0
0
0
0
0
0
0
0
0
0
0
0
0
0
0
0
0
0
0
0
0
0
0
0
0
0
0
0
0
0
0
0
0
0
0
0
0
0
0
0
0
0
0
0
0
0
0
0
0
0
0
0
0
0
0
0
0
0
0
0
0
0
0
0
0
0
0
0
0
0
0
0
0
0
0
0
0
0
0
0
0
0
0
0
0
0
0
0
0
0
0
0
0
0
0
0
0
0
0
0
0
0
0
0
0
0
0
0
0
0
0
0
0
0
0
0
0
0
0
0
0
0
0
0
0
0
0
0
0
0
0
0
0
0
0
0
0
0
0
0
0
0
0
0
0
0
0
0
0
0
0
0
0
0
0
0
0
0
0
0
0
0
0
0
0
0
0
0
0
0
0
0
0
0
0
0
0
0
0
0
0
0
0
0
0
0
0
0
0
0
0
0
0
0
0
0
0
0
0
0
0
0
0
0
0
0
0
0
0
0
0
0
0
0
0
0
0
0
0
0
0
0
0
0
0
0
0
0
0
0
0
0
0
0
0
0
0
0
0
0
0
0
0
0
0
0
0
0
0
0
0
0
0
0
0
0
0
0
0
0
0
0
0
0
0
0
0
0
0
0
0
0
0
0
0
0
0
0
0
0
0
0
0
0
0
0
0
0
0
0
0
0
0
0
0
0
0
0
0
0
0
0
0
0
0
0
0
0
0
0
0
0
0
0
0
0
0
0
0
0
0
0
0
0
0
0
0
0
0
0
0
0
0
0
0
0
0
0
0
0
0
0
0
0
0
0
0
0
0
0
0
0
0
0
0
0
0
0
0
0
0
0
0
0
0
0
0
0
0
0
0
0
0
0
0
0
0
0
0
0
0
0
0
0
0
0
0
0
0
0
0
0
0
0
0
0
0
0
0
0
0
0
0
0
0
0
0
0
0
0
0
0
0
0
0
0
0
0
0
0
0
0
0
0
0
0
0
0
0
0
0
0
0
0
0
0
0
0
0
0
0
0
0
0
0
0
0
0
0
0
0
0
0
0
0
0
0
0
0
0
0
0
0
0
0
0
0
0
0
0
0
0
0
0
0
0
0
0
0
0
0
0
0
0
0
0
0
0
0
0
0
0
0
0
0
0
0
0
0
0
0
0
0
0
0
0
0
0
0
0
0
0
0
0
0
0
0
0
0
0
0
0
0
0
0
0
0
0
0
0
0
0
0
0
0
0
0
0
0
0
0
0
0
0
0
0
0
0
0
0
0
0
0
0
0
0
0
0
0
0
0
0
0
0
0
0
0
0
0
0
0
0
0
0
0
0
0
0
0
0
0
0
0
0
0
0
0
0
0
0
0
0
0
0
0
0
0
0
0
0
0
0
0
0
0
0
0
0
0
0
0
0
0
0
0
0
0
0
0
0
0
0
0
0
0
0
0
0
0
0
0
0
0
0
0
0
0
0
0
0
0
0
0
0
0
0
0
0
0
0
0
0
0
0
0
0
0
0
0
0
0
0
0
0
0
0
0
0
0
0
0
0
0
0
0
0
0
0
0
0
0
0
0
0
0
0
0
0
0
0
0
0
0
0
0
0
0
0
0
0
0
0
0
0
0
0
0
0
0
0
0
0
0
0
0
0
0
0
0
0
0
0
0
0
0
0
0
0
0
0
0
0
0
0
0
0
0
0
0
0
0
0
0
0
0
0
0
0
0
0
0
0
0
0
0
0
0
0
0
0
0
0
0
0
0
0
0
0
0
0
0
0
0
0
0
0
0
0
0
0
0
0

VECTORS Velocity float
0 0 0
0 0 0
0 0 0
0 0 0
0 0 0
0 0 0
0 0 0
0.00329539 0 0.00437827
0.00317418 -0.00171396 -0.0108441
-0.00122741 0.000381324 0.00289834
-0.000605783 -0.00129176 0.00306713
0.00191264 -5.46526e-06 -0.000265865
0.00703747 0.00310546 -0.00912245
0.016865 0.00572891 -0.0160583
0.0155652 0 0.00488959
0.00884263 -0.000392743 0.00723615
0.0118042 -0.000408312 -0.0029428
0.0140346 -0.000351176 0.00147191
-0.0108512 0.00304784 -0.00124496
0.00562483 0.00273517 -0.0105907
0.0170421 0.00654919 -0.0090221
0.0246952 0 0.00985857
0.0291502 0.00215392 0.00254894
0.0238344 -0.00140083 0.00854601
0.00860905 0.00148573 0.0132421
0.0125667 -0.000742002 0.00546558
-0.00899062 0.00343901 0.00246245
0.0103876 -0.00835772 0.00250652
0.0345595 0 0.0113349
0.0278881 -0.0060159 0.0244967
0.0310626 0.00184837 0.0093164
0.0135966 0.000277387 0.0123994
0.000583305 0.00815673 0.00410524
-0.00515595 0.00316169 0.0033443
-0.00219443 -0.00175809 0.0144974
0.0206867 0 0.0344469
0.0181841 0.00466187 0.0163528
0.00834187 0.00322278 0.0232735
0.017711 0.0113228 0.00935495
0.00141836 0.00385509 0.0203038
0.00156388 -0.00467232 0.0174145
0.00252773 -0.0110471 0.0115733
0.00882442 0 0.0308327
0.0023528 0.00270818 0.0338272
0.00869585 0.00707146 0.0129372
0.00558389 -0.000373216 0.030115
0.00540277 -0.000373405 0.0304552
0.00522209 -0.00037364 0.0307937
0.00504262 -0.000373707 0.0311334
0.0185336 0 0.0334063
0.00211289 -0.000711982 0.0294333
0.00193355 -0.000712015 0.0297736
0.00175123 -0.000712374 0.0301125
0.00157259 -0.000712364 0.0304523
0.00139163 -0.000712572 0.0307919
0.0012122 -0.000712731 0.0311296
-0.0104782 0 0.0189617
-0.0017172 -0.00105095 0.02943
-0.00189852 -0.00105114 0.0297708
-0.00207753 -0.00105116 0.0301106
-0.00225989 -0.00105157 0.0304484
-0.0024401 -0.0010517 0.0307883
-0.00262023 -0.0010518 0.0311286
-0.000766916 0 0.0257164
-0.00554979 -0.00139006 0.0294285
-0.00572992 -0.00139024 0.029767
-0.00590973 -0.00139035 0.0301065
-0.00609019 -0.00139052 0.030446
-0.00626998 -0.00139066 0.0307848
-0.00645086 -0.00139084 0.0311247
-0.0332596 0 0.0454449
-0.00937884 -0.00172889 0.0294261
-0.00956101 -0.00172924 0.029765
-0.00974044 -0.0017294 0.0301027
-0.00992103 -0.00172955 0.0304428
-0.0101013 -0.00172975 0.0307813
-0.0102817 -0.00172988 0.0311215
0.0147485 0 0.0564776
-0.01321 -0.00206802 0.0294214
-0.0133914 -0.00206826 0.029761
-0.0135716 -0.00206839 0.0301009
-0.0137502 -0.00206837 0.0304409
-0.0254485 -0.00599002 0.0423152
-0.0286641 -0.00134948 0.0543225
-0.0165577 0 0.0690626
-0.00445279 -0.000544661 0.0503484
-0.00608042 -0.00234719 0.045143
0.00160113 -0.0155453 0.0367715
-0.0229087 -0.0259449 0.0324667
-0.0497246 -0.0183623 0.0375385
-0.0379624 -0.0276879 0.0488541
0.0234128 0 0.0710769
0.000710125 -0.000142523 0.0664488
-0.00312416 -0.00544938 0.0626282
0.0283539 -0.00478402 0.053566
0.0125572 -0.0298581 0.0417775
-0.0456493 -0.0414957 0.0500687
-0.0502567 -0.0379011 0.0619054
0.0317793 0 0.0801865
0.00461032 -0.00335676 0.0857468
0.00197285 -0.019621 0.0524982
0.0424325 -0.0364907 0.063472
0.0264445 -0.0225032 0.0579277