# vtk DataFile Version 3.0
vtk output
ASCII
DATASET UNSTRUCTURED_GRID
FIELD FieldData 2
TIME 1 1 double
5.00109
CYCLE 1 1 int
0
POINTS 850 float
24.7162 80.0265 0
31.4206 82.6396 0
40.5984 84.6571 0
50.5308 83.5253 0
60.4604 82.5162 0
70.4176 81.6465 0
80.3838 80.9511 0
90.3556 80.2337 0
100.328 79.5456 0
110.3 78.8032 0
120.272 78.0555 0
130.241 77.2982 0
140.209 76.467 0
150.167 75.5689 0
160.124 74.6294 0
170.08 73.6941 0
180.029 72.7094 0
189.491 66.7518 0
198.962 60.8172 0
208.479 54.9427 0
217.976 49.0526 0
227.476 43.1512 0
236.915 37.1629 0
246.322 31.1207 0
255.711 25.0469 0
265.125 19.0201 0
274.592 13.0626 0
283.93 6.93167 0
292.573 -0.163199 0
300.143 -8.37483 0
306.623 -17.5182 0
313.146 -26.5887 0
321.41 -34.0585 0
331.284 -32.7387 0
340.801 -29.6685 0
350.318 -26.5412 0
360.102 -24.5148 0
370.072 -23.6923 0
380.068 -23.6809 0
390.067 -23.8054 0
400.065 -24.023 0
410.059 -24.2563 0
420.054 -24.5312 0
430.043 -24.8159 0
440.034 -25.1025 0
450.024 -25.3747 0
460.015 -25.6415 0
470.009 -25.8609 0
480 -25.9626 0
0 0 0
20.715 81.4664 10
30.6851 82.6013 10.0701
40.5789 84.1451 10.0368
50.5105 83.3732 10.0118
60.4473 82.2974 10.0068
70.409 81.5857 10.0031
80.3766 80.8033 10.0025
90.3498 80.1696 10.0014
100.322 79.4505 9.99998
110.297 78.7688 9.99988
120.268 78.028 9.9991
130.241 77.2857 10.0001
140.207 76.4669 10.0003
150.168 75.5583 10.0027
160.123 74.6351 10.0014
170.078 73.6807 10.0022
180.035 72.7194 10.0011
189.489 66.7521 10.0012
198.98 60.8373 10.0004
208.48 54.9521 10.0022
218.002 49.0868 10.0006
227.475 43.1529 9.99949
236.912 37.1545 9.99981
246.278 31.0501 9.99718
255.652 24.9608 9.99802
265.047 18.8954 9.9981
274.503 12.9398 10.0055
283.864 6.82043 10.0141
292.646 -0.0783862 9.99122
300.117 -8.41754 9.97972
306.812 -17.353 9.99026
313.077 -26.6205 10.0244
321.381 -34.1506 10.0148
331.321 -32.7902 10.0176
340.757 -29.4809 9.99122
350.31 -26.5616 9.98676
360.096 -24.4399 9.99148
370.07 -23.8508 10.0086
380.069 -23.8576 10.0036
390.066 -24.0216 9.99976
400.061 -24.2172 9.99945
410.057 -24.447 9.99819
420.049 -24.672 9.99945
430.041 -24.9251 9.9995
440.031 -25.1845 10.0011
450.024 -25.4312 10.0004
460.014 -25.6695 10.001
470.008 -25.8685 10.0008
480 -25.9535 10
0 0 0
20.5213 83.2897 20
30.5154 83.2985 20.0016
40.5045 83.5132 20.0367
50.4778 82.8792 20.022
60.4126 81.8834 20.0007
70.3929 81.2862 20.0039
80.3552 80.5321 19.9989
90.3351 79.9361 20.0009
100.307 79.2521 19.9974
110.285 78.64 19.9991
120.26 77.9416 19.998
130.237 77.2672 19.9991
140.204 76.437 20.0012
150.167 75.5717 20.002
160.127 74.6337 20.0072
170.077 73.6831 20.0015
180.029 72.7058 20.0031
189.508 66.7704 19.9993
199 60.8775 20.0045
208.53 55.0236 20.0022
218.025 49.1233 19.9997
227.477 43.1507 19.9996
236.835 37.0353 19.9956
246.17 30.8839 19.9961
255.489 24.7087 19.9908
264.857 18.6161 19.9938
274.265 12.5716 19.9998
283.64 6.50017 20.0148
292.622 -0.167794 19.9996
300.453 -8.11448 19.9467
306.874 -17.2865 19.9952
313.434 -26.3117 20.0366
321.501 -33.7676 20.1155
331.248 -32.4838 20.0237
340.755 -29.4224 19.9995
350.235 -26.1921 19.9534
360.078 -24.5365 20.0006
370.075 -24.2759 20.0041
380.07 -24.3689 19.9938
390.062 -24.5203 19.9909
400.057 -24.7077 19.9876
410.049 -24.8603 19.9915
420.043 -25.04 19.9922
430.034 -25.193 19.9972
440.028 -25.3955 19.9987
450.02 -25.5611 20.0014
460.012 -25.752 20.0015
470.007 -25.8765 20.0017
480 -25.9385 20
0 0 0
20.4974 83.3101 30
30.4823 83.2822 30.0113
40.4604 82.8186 30.0169
50.423 82.1991 30.0087
60.3933 81.5076 30.0004
70.3593 80.8606 29.9965
80.3378 80.2431 29.9968
90.311 79.6289 29.9962
100.289 79.0152 29.9964
110.267 78.4183 29.9962
120.247 77.8077 29.9978
130.227 77.1799 29.9979
140.201 76.4465 30.0007
150.17 75.6153 30.004
160.129 74.6746 30.0065
170.095 73.7032 30.0097
180.05 72.746 29.9805
189.521 66.8105 30.0024
199.057 60.9542 30.0051
208.586 55.1105 30.0023
218.079 49.202 30.0009
227.437 43.0801 29.9957
236.735 36.8736 29.9976
245.987 30.6045 29.9868
255.288 24.4087 29.9879
264.57 18.1808 29.978
273.924 12.0779 29.9867
283.213 5.85163 29.9889
292.443 -0.438487 30.0032
300.979 -7.7064 29.931
307.884 -16.4002 29.8743
313.244 -26.2408 30.1406
321.389 -34.1868 30.0342
331.425 -32.4981 30.122
340.485 -28.2329 29.8927
350.098 -25.742 29.9498
360.092 -25.014 29.9985
370.079 -25.0217 29.9753
380.069 -25.0933 29.9747
390.061 -25.2113 29.9659
400.052 -25.2845 29.975
410.043 -25.393 29.977
420.035 -25.4753 29.9858
430.029 -25.5685 29.9902
440.022 -25.6651 29.9975
450.017 -25.7605 30.0005
460.011 -25.8489 30.0033
470.005 -25.9096 30.0023
480 -25.9251 30
0 0 0
20.4777 83.4688 40
30.4521 82.9065 40.0121
40.416 82.3 40.0078
50.3953 81.7154 40.0012
60.3621 81.1154 39.9968
70.3416 80.5321 39.9951
80.3137 79.9323 39.9925
90.2934 79.3483 39.9954
100.27 78.7489 39.9927
110.249 78.1623 39.9956
120.226 77.5658 39.9944
130.204 76.9827 39.9988
140.187 76.3897 39.9986
150.186 75.7627 40.0015
160.204 75.0535 39.9936
170.236 74.2205 40.0056
180.279 73.3153 39.8963
189.826 67.388 39.9977
199.292 61.3762 39.9862
208.707 55.2887 40.0045
218.017 49.074 39.9972
227.287 42.8398 39.9957
236.55 36.59 39.9874
245.819 30.3444 39.9904
255.056 24.0522 39.9739
264.299 17.7789 39.9761
273.507 11.4416 39.9569
282.727 5.15586 39.9598
291.91 -1.21801 39.9555
301.131 -7.55159 39.9578
310.188 -14.7606 39.4953
316.818 -23.4774 39.3805
322.478 -31.0328 40.0906
330.21 -28.0295 39.3815
339.904 -26.2033 39.6689
350.127 -25.781 39.9911
360.102 -25.9041 39.9423
370.084 -25.9088 39.9522
380.068 -25.9232 39.9392
390.054 -25.9152 39.95
400.044 -25.9234 39.9554
410.034 -25.9175 39.9701
420.028 -25.9253 39.977
430.021 -25.9216 39.9884
440.017 -25.9285 39.9952
450.013 -25.9266 40.0018
460.009 -25.9325 40.0037
470.006 -25.9303 40.004
480 -25.9341 40
0 0 0
19.8869 73.5057 40
29.8437 72.9044 39.9373
39.819 72.3255 39.8376
49.7883 71.7246 39.8016
59.7701 71.1395 39.8101
69.7424 70.5419 39.8111
79.7231 69.9566 39.8038
89.698 69.3593 39.7819
99.6777 68.7735 39.7554
109.655 68.1764 39.7066
119.633 67.593 39.6485
129.611 66.9994 39.6311
139.581 66.4098 39.7611
149.539 65.7902 40.2309
159.491 65.1188 40.8804
169.463 64.3519 41.3607
179.419 63.4652 41.2737
188.882 57.5331 41.4267
198.241 51.4729 40.8944
207.496 45.3348 40.0263
216.751 39.1575 39.5082
226.004 32.9174 39.4942
235.262 26.6849 39.6428
244.49 20.4148 39.6551
253.727 14.1559 39.6655
262.934 7.85131 39.4674
272.15 1.5722 39.3976
281.341 -4.75545 38.9931
290.528 -11.0283 39.0579
299.472 -17.5134 40.1284
307.559 -23.5862 44.625
314.93 -30.3492 46.8842
323.309 -36.2096 48.8487
331.911 -36.147 45.6516
340.787 -35.9963 42.1657
350.194 -35.8497 39.3131
360.085 -35.8435 38.9048
370.076 -35.8924 39.1108
380.063 -35.9 39.3023
390.053 -35.9132 39.4203
400.042 -35.912 39.5426
410.035 -35.9216 39.6429
420.027 -35.9202 39.7316
430.022 -35.9276 39.8085
440.016 -35.9263 39.8729
450.012 -35.9322 39.9221
460.008 -35.9303 39.9626
470.004 -35.9347 39.9889
480 -35.9327 40
0 0 0
19.2655 63.517 40
29.2502 62.9261 39.9593
39.2155 62.3323 39.888
49.1968 61.7468 39.8274
59.1698 61.1499 39.7956
69.1513 60.5635 39.771
79.1261 59.968 39.7234
89.1071 59.3812 39.6565
99.0829 58.7863 39.5592
109.061 58.2013 39.4387
119.039 57.6076 39.3104
129.011 57.027 39.1979
138.977 56.4241 39.4088
148.882 55.8254 40.282
158.731 55.201 41.9328
168.624 54.5306 43.0854
178.556 53.6679 43.207
187.936 47.679 42.9597
197.131 41.552 41.6826
206.236 35.4063 39.6633
215.468 29.2021 38.9317
224.711 22.9747 39.1136
233.927 16.7157 39.2385
243.155 10.4703 39.307
252.353 4.18523 39.1532
261.559 -2.08298 39.027
270.741 -8.38651 38.6309
279.932 -14.6608 38.3506
289.061 -21.0006 38.1611
297.733 -27.2803 41.1235
305.225 -33.4487 46.3776
313.263 -39.7914 51.2074
323.122 -45.5965 51.5122
332.786 -45.8112 48.4831
340.956 -45.8534 42.5703
350.157 -45.8682 38.8798
360.099 -45.8531 38.0972
370.071 -45.8748 38.498
380.058 -45.8993 38.8286
390.047 -45.9053 39.1133
400.039 -45.9174 39.3325
410.031 -45.9182 39.5166
420.026 -45.9263 39.6524
430.02 -45.9257 39.7584
440.015 -45.9317 39.8362
450.011 -45.9302 39.8971
460.007 -45.9348 39.945
470.004 -45.9333 39.9836
480 -45.9362 40
0 0 0
18.6726 53.5368 40
28.6417 52.9395 39.9834
38.6255 52.3509 39.9331
48.5973 51.7587 39.8814
58.5804 51.1699 39.8302
68.5549 50.576 39.7695
78.5366 49.9879 39.6884
88.5122 49.3943 39.5809
98.4917 48.8062 39.4386
108.467 48.215 39.2553
118.444 47.6297 39.0462
128.418 47.0361 38.8598
138.384 46.4523 39.0015
148.293 45.8434 40.1648
158.041 45.2464 42.2041
167.778 44.6206 44.3705
177.678 43.8419 45.046
187.021 37.803 44.5907
196.073 31.6326 42.4248
204.957 25.4177 39.8318
214.141 19.203 38.6372
223.349 12.9408 38.6717
232.567 6.69638 38.8866
241.752 0.422185 38.8407
250.947 -5.83761 38.7846
260.122 -12.1248 38.4974
269.307 -18.3958 38.2621
278.461 -24.7005 37.7159
287.603 -31.0174 38.0568
296.39 -37.2748 40.6907
304.385 -43.4501 45.5391
313.124 -49.6229 48.7916
322.456 -55.388 49.8198
331.91 -55.7133 47.0778
340.877 -55.788 42.726
350.149 -55.8646 38.9354
360.081 -55.8688 37.8628
370.067 -55.8868 38.2288
380.052 -55.8953 38.624
390.042 -55.9097 38.9656
400.033 -55.9139 39.2497
410.027 -55.923 39.4705
420.021 -55.9242 39.64
430.018 -55.9305 39.7586
440.013 -55.93 39.8425
450.01 -55.9348 39.9027
460.006 -55.9336 39.9498
470.003 -55.9369 39.9846
480 -55.9347 40
0 0 0
18.0645 43.5511 40
28.0519 42.9575 39.9921
38.0249 42.3659 39.9723
48.0108 41.7766 39.9334
57.9844 41.184 39.8756
67.9678 40.5941 39.7957
77.9425 40.0017 39.6926
87.9228 39.4123 39.5627
97.8993 38.8207 39.3976
107.878 38.2325 39.1828
117.853 37.6406 38.9299
127.826 37.0544 38.6483
137.806 36.4619 38.7502
147.706 35.8761 39.925
157.389 35.2724 42.376
166.909 34.7065 45.3008
176.765 33.9437 46.6064
186.063 27.8822 45.6558
194.887 21.6974 42.8703
203.722 15.4793 40.0409
212.815 9.23406 38.4523
222 2.94391 38.5936
231.148 -3.36769 38.6509
240.323 -9.6512 38.7128
249.494 -15.9313 38.5381
258.683 -22.192 38.4205
267.851 -28.4778 38.0383
277.013 -34.7785 37.8398
286.199 -41.0715 38.0022
295.194 -47.2385 40.41
[...]
POINT_DATA 850
SCALARS NODE_ID int 1
LOOKUP_TABLE default
1
2
3
4
5
6
7
8
9
10
11
12
13
14
15
16
17
18
19
20
21
22
23
24
25
26
27
28
29
30
31
32
33
34
35
36
37
38
39
40
41
42
43
44
45
46
47
48
49
50
51
52
53
54
55
56
57
58
59
60
61
62
63
64
65
66
67
68
69
70
71
72
73
74
75
76
77
78
79
80
81
82
83
84
85
86
87
88
89
90
91
92
93
94
95
96
97
98
99
100
101
102
103
104
105
106
107
108
109
110
111
112
113
114
115
116
117
118
119
120
121
122
123
124
125
126
127
128
129
130
131
132
133
134
135
136
137
138
139
140
141
142
143
144
145
146
147
148
149
150
151
152
153
154
155
156
157
158
159
160
161
162
163
164
165
166
167
168
169
170
171
172
173
174
175
176
177
178
179
180
181
182
183
184
185
186
187
188
189
190
191
192
193
194
195
196
197
198
199
200
201
202
203
204
205
206
207
208
209
210
211
212
213
214
215
216
217
218
219
220
221
222
223
224
225
226
227
228
229
230
231
232
233
234
235
236
237
238
239
240
241
242
243
244
245
246
247
248
249
250
251
252
253
254
255
256
257
258
259
260
261
262
263
264
265
266
267
268
269
270
271
272
273
274
275
276
277
278
279
280
281
282
283
284
285
286
287
288
289
290
291
292
293
294
295
296
297
298
299
300
301
302
303
304
305
306
307
308
309
310
311
312
313
314
315
316
317
318
319
320
321
322
323
324
325
326
327
328
329
330
331
332
333
334
335
336
337
338
339
340
341
342
343
344
345
346
347
348
349
350
351
352
353
354
355
356
357
358
359
360
361
362
363
364
365
366
367
368
369
370
371
372
373
374
375
376
377
378
379
380
381
382
383
384
385
386
387
388
389
390
391
392
393
394
395
396
397
398
399
400
401
402
403
404
405
406
407
408
409
410
411
412
413
414
415
416
417
418
419
420
421
422
423
424
425
426
427
428
429
430
431
432
433
434
435
436
437
438
439
440
441
442
443
444
445
446
447
448
449
450
451
452
453
454
455
456
457
458
459
460
461
462
463
464
465
466
467
468
469
470
471
472
473
474
475
476
477
478
479
480
481
482
483
484
485
486
487
488
489
490
491
492
493
494
495
496
497
498
499
500
501
502
503
504
505
506
507
508
509
510
511
512
513
514
515
516
517
518
519
520
521
522
523
524
525
526
527
528
529
530
531
532
533
534
535
536
537
538
539
540
541
542
543
544
545
546
547
548
549
550
551
552
553
554
555
556
557
558
559
560
561
562
563
564
565
566
567
568
569
570
571
572
573
574
575
576
577
578
579
580
581
582
583
584
585
586
587
588
589
590
591
592
593
594
595
596
597
598
599
600
601
602
603
604
605
606
607
608
609
610
611
612
613
614
615
616
617
618
619
620
621
622
623
624
625
626
627
628
629
630
631
632
633
634
635
636
637
638
639
640
641
642
643
644
645
646
647
648
649
650
651
652
653
654
655
656
657
658
659
660
661
662
663
664
665
666
667
668
669
670
671
672
673
674
675
676
677
678
679
680
681
682
683
684
685
686
687
688
689
690
691
692
693
694
695
696
697
698
699
700
701
702
703
704
705
706
707
708
709
710
711
712
713
714
715
716
717
718
719
720
721
722
723
724
725
726
727
728
729
730
731
732
733
734
735
736
737
738
739
740
741
742
743
744
745
746
747
748
749
750
751
752
753
754
755
756
757
758
759
760
761
762
763
764
765
766
767
768
769
770
771
772
773
774
775
776
777
778
779
780
781
782
783
784
785
786
787
788
789
790
791
792
793
794
795
796
797
798
799
800
801
802
803
804
805
806
807
808
809
810
811
812
813
814
815
816
817
818
819
820
821
822
823
824
825
826
827
828
829
830
831
832
833
834
835
836
837
838
839
840
841
842
843
844
845
846
847
848
849
850

VECTORS Velocity float
4.91496 0.00534661 0
4.63124 1.28153 0
4.58068 1.30263 0
4.44679 0.380693 0
4.35259 0.0334713 0
4.36358 -0.503963 0
4.3549 -0.961654 0
4.38275 -1.46484 0
4.19574 -1.67 0
4.21391 -1.75706 0
4.22614 -1.48664 0
4.30576 -1.26624 0
4.15545 -1.18649 0
4.31861 -1.36376 0
4.1493 -1.57068 0
4.26155 -1.50053 0
4.13661 -1.75338 0
4.07333 -1.88798 0
3.94376 -2.07303 0
3.53294 -2.67929 0
3.2604 -3.17886 0
3.04072 -3.57507 0
2.46471 -4.41745 0
2.15602 -4.91084 0
1.82145 -5.22349 0
1.93105 -5.18294 0
2.14637 -4.88088 0
2.37529 -4.38377 0
2.86127 -3.88714 0
2.81838 -3.97915 0
1.75852 -4.60574 0
1.03432 -5.35612 0
0.2589 -6.07066 0
0.378978 -6.14618 0
0.20839 -5.63363 0
-0.0164597 -4.97902 0
0.0529594 -5.05515 0
0.04047 -5.09067 0
0.0261076 -5.05937 0
-0.0508582 -5.20453 0
-0.0845784 -5.08506 0
0.0149397 -5.08202 0
0.0926829 -4.8736 0
-0.0527736 -4.92466 0
-0.00924503 -5.10874 0
0.0801273 -5.05915 0
0.00560719 -5.07132 0
0.0393956 -4.89735 0
0 -4.90291 0
0 0 0
4.49865 1.32037 0
4.5829 0.915815 0.0237878
4.51175 1.27823 0.000323145
4.39792 0.585193 0.00811147
4.4509 0.0285735 0.0111753
4.40228 -0.439043 0.0499303
4.3582 -0.837302 0.0460201
4.28459 -1.17185 0.0113744
4.23101 -1.50159 -0.0202945
4.25241 -1.61792 -0.0258828
4.194 -1.40639 -0.00194095
4.28543 -1.33014 -0.057798
4.2448 -1.1114 -0.0418754
4.3271 -1.25682 -0.023467
4.18452 -1.46263 -0.0576206
4.25231 -1.67608 -0.0694588
4.11687 -1.67453 -0.00671703
4.0732 -1.84689 -0.0334527
3.89271 -2.1776 0.0173629
3.60577 -2.57162 0.0241411
3.35975 -3.09099 -0.00808913
3.0381 -3.5868 -0.000589739
2.66579 -4.13911 -0.0134449
2.27725 -4.71441 -0.0045652
2.15859 -5.00482 -0.00149838
2.03101 -5.05837 -0.0247123
2.14931 -4.84461 0.00325674
2.41536 -4.34617 -0.00345973
2.84844 -3.9105 0.0262039
2.66838 -4.05828 -0.0307575
1.95628 -4.68548 -0.0109197
0.865238 -5.36843 -0.050754
0.367919 -6.13621 0.025074
0.312981 -6.10637 -0.0591301
0.210898 -5.56104 0.00887922
0.048034 -5.18192 -0.0564649
0.0146487 -4.98374 -0.00259876
0.0682639 -5.09988 0.0051776
0.0269379 -5.14048 -0.0285008
-0.00915933 -5.10082 -0.0197703
0.0476404 -5.03867 -0.0119946
0.0198545 -4.8445 -0.00147461
0.00330291 -4.84483 0.00851157
0.00766308 -4.81034 0.00142906
-0.00115856 -4.87405 0.0266123
0.000948877 -5.10752 0.0162703
0.0273915 -5.01561 0.0269104
0.0377585 -4.98258 0.0158666
0 -4.90003 0
0 0 0
4.43409 1.53286 0
4.47565 1.43407 -0.0253845
4.48524 1.24465 0.0258673
4.44005 0.7536 0.00808969
4.40777 0.297745 0.0200208
4.33337 -0.171932 0.00600274
4.33022 -0.512556 0.0148075
4.3668 -0.8813 0.0445098
4.25908 -1.02332 0.0302585
4.27087 -1.15889 0.0168346
4.2113 -1.15103 -0.0351855
4.26911 -1.03691 -0.00124769
4.23228 -1.02094 -0.0464708
4.27921 -1.04103 0.0306086
4.22867 -1.19101 0.0433849
4.33569 -1.43455 0.0428421
4.20426 -1.47052 -0.0454882
4.11519 -1.89785 0.0292282
3.85625 -2.12252 -0.058095
3.64097 -2.53895 -0.010637
3.51808 -2.87002 -0.0468709
3.22125 -3.21863 -0.0374638
2.83209 -3.83577 -0.0383034
2.64427 -4.10426 0.0579773
2.44633 -4.47216 0.00412281
2.3821 -4.56856 0.0444981
2.41055 -4.43788 0.0243328
2.51487 -4.32573 -0.0187127
2.69726 -3.9775 0.0137577
2.64054 -4.19398 -0.0362538
1.78748 -4.67779 0.0138596
0.995389 -5.31625 -0.0585688
0.338139 -5.91669 -0.0359746
0.357992 -5.96979 0.0292835
0.192322 -5.59419 -0.0257912
0.0585147 -5.07317 0.0319596
0.0115447 -4.97108 -0.0268923
0.0501351 -5.13371 0.00827572
-0.0232928 -5.15052 -0.0107682
0.0900303 -5.27753 0.0122425
0.0263123 -5.05917 -0.0378922
0.0321924 -4.79977 -0.0409235
0.0742215 -4.71917 -0.0189649
0.00575533 -4.79888 0.000929307
0.0626211 -4.75274 -0.00175935
0.0146874 -4.84505 0.0226867
0.0262928 -5.06019 -0.00774583
-0.035905 -4.99257 0.0523845
0 -5.03835 0
0 0 0
4.45601 1.79335 0
4.51857 1.68632 0.0445661
4.41734 1.387 0.0194301
4.42278 1.07504 -0.0291243
4.35087 0.819127 -0.00783908
4.43021 0.592984 0.0484728
4.40998 -0.0175767 0.0786063
4.37919 -0.194757 0.082669
4.3132 -0.471249 0.0939135
4.4244 -0.653363 0.00273346
4.28675 -0.533722 -0.00568794
4.35237 -0.721626 -0.0433797
4.25017 -0.695873 -0.0260971
4.31795 -0.858555 -0.0299723
4.20825 -0.955916 0.0713346
4.28181 -1.28139 -0.000775889
4.22587 -1.63591 0.0618604
4.10968 -1.75308 -0.0595624
3.94296 -2.08448 0.0186189
3.78576 -2.28754 -0.059258
3.59036 -2.62692 -0.0182596
3.36401 -2.96378 0.0161605
3.23087 -3.17942 0.0315714
2.97489 -3.62154 -0.00509482
2.83593 -3.81277 0.0421015
2.66363 -3.96478 0.0668563
2.73518 -3.99661 0.0710862
2.61019 -4.08903 0.0158061
2.57286 -4.2278 -0.00169481
2.59755 -4.27501 -0.0124869
2.07267 -4.77036 -0.082808
0.794896 -5.36494 -0.0158868
0.372557 -5.93889 -0.0144608
0.350474 -6.09346 0.0052546
0.12338 -5.39083 -0.00224469
-0.0900988 -4.91704 -0.0577858
-0.00163556 -4.97569 0.0267754
0.038287 -5.02614 -0.00682639
0.0189869 -5.05485 0.0220925
-0.0239195 -5.17576 -0.000884096
0.00736597 -5.14792 -0.00206435
-0.024337 -4.85017 -0.00790824
0.0196995 -4.77748 0.00282442
-0.0338612 -4.82791 0.0197108
-0.00466278 -4.98404 0.0606393
-0.0338712 -4.99503 0.0512393
0.0342336 -5.0397 0.105064
-0.0258364 -5.02142 0.0661687
0 -5.07482 0
0 0 0
4.33772 1.93519 0
4.46333 1.80264 0.042019
4.4756 1.52893 0.0333191
4.48745 1.36511 0.0554626
4.42339 1.14578 0.0805341
4.44507 0.841196 0.0169138
4.38166 0.636918 0.0894977
4.4734 0.451806 0.111587
4.38243 0.15527 0.116251
4.34939 -0.0904677 0.151816
4.4064 -0.357987 -0.0218376
4.35565 -0.546019 -0.0462822
4.34604 -0.776132 -0.00110221
4.25911 -1.03864 -0.0116849
4.24634 -1.16 -0.0218709
4.22583 -1.46604 0.040067
4.30546 -1.63094 0.0231566
4.19167 -1.84758 0.032583
3.92502 -2.04872 -0.0471419
3.84218 -2.37331 0.0360533
3.70524 -2.51928 -0.0565968
3.51583 -2.8039 -0.0044042
3.36624 -3.05647 -0.05112
3.17877 -3.18873 0.0531097
3.01094 -3.47701 0.0951958
2.89338 -3.69922 0.0566928
2.73013 -4.01233 0.101719
2.55365 -4.27002 0.0884421
2.37286 -4.45029 -0.0289622
2.19956 -4.65858 0.0217235
2.04828 -4.9923 -0.0312216
1.15823 -5.70647 -0.0135308
0.328933 -6.2784 0.0167255
0.176356 -5.70137 -0.0664623
-0.0787501 -5.23131 -0.11546
0.00262374 -5.01735 0.0308878
0.0182289 -4.96935 -0.0273798
0.00945949 -5.10537 -0.0806777
0.0372057 -5.08619 0.0432511
0.0196776 -5.0693 -0.0335356
0.0574542 -5.06494 0.000857285
0.00620744 -5.09854 0.0511152
0.068074 -5.09125 0.0221338
-0.106125 -5.05662 -0.0531603
0.016734 -5.05055 0.0160128
-0.026847 -5.04648 0.0190692
0.00809685 -5.07602 0.0824911
0.0160763 -5.11132 0.0475717
0 -5.16445 0
0 0 0
4.19601 1.9639 0
4.30977 1.79101 -0.102157
4.242 1.57316 -0.0752499
4.19727 1.41331 -0.240851
4.21289 1.14529 -0.296561
4.14983 0.861441 -0.261928
4.18452 0.591472 -0.177108
4.23969 0.342078 -0.0962505
4.14359 0.139899 0.0460204
4.17645 -0.108459 0.0713239
4.15922 -0.29024 -0.263208
4.14514 -0.605573 -0.371118
4.07602 -0.787354 -0.614902
4.14316 -1.06496 -0.538599
4.02993 -1.199 -0.308808
4.0713 -1.44755 -0.28684
4.08698 -1.61819 -0.0526079
3.94527 -1.77042 -0.03364
3.74782 -2.0306 -0.0566357
3.56465 -2.30787 -0.0426343
3.49259 -2.54245 0.137569
3.1928 -2.76345 -0.00646921
3.15065 -2.95188 0.0335341
2.91404 -3.21686 -0.147646
2.82302 -3.47341 -0.0693598
2.57758 -3.71748 -0.194249
2.56291 -3.89775 -0.380058
2.24204 -4.13946 -0.393562
2.2052 -4.37706 -0.431796
1.95665 -4.6423 -0.288532
1.40178 -4.78948 0.296122
1.00746 -5.09309 0.447745
0.604018 -5.32372 0.7482
0.33842 -5.1689 0.62393
0.220706 -5.17033 0.455964
0.0923649 -5.0831 -0.0571072
0.00338475 -5.0488 -0.291622
0.00604388 -5.02587 -0.231041
0.022444 -5.09179 -0.301578
0.00678359 -5.01922 -0.246787
-0.046449 -5.08927 -0.265303
-0.0223806 -5.05455 -0.372288
-0.0443408 -5.13455 -0.5795
-0.0342884 -5.08805 -0.489381
-0.0276147 -5.1008 -0.320548
-0.00296747 -5.05295 -0.310048
-0.00890628 -5.09034 -0.108619
-0.00416624 -5.08655 -0.0486177
0 -5.15037 0
0 0 0
4.05332 2.03585 0
4.12855 1.7876 -0.0629013
4.03623 1.56981 -0.341547
4.05369 1.41486 -0.683143
3.92278 1.15039 -1.04336
4.03753 0.860586 -0.876775
3.9378 0.705617 -0.800165
3.96131 0.455825 -0.5153
3.92224 0.246754 -0.246642
3.92822 -0.130756 -0.399501
3.9146 -0.316513 -0.675169
3.84127 -0.525881 -0.81832
3.93124 -0.776505 -1.10857
3.85441 -1.01889 -0.816589
3.84349 -1.26677 -0.566972
3.82446 -1.50495 -0.501779
3.799 -1.5495 -0.0942995
3.70111 -1.83473 0.0991427
3.39697 -2.04307 -0.197337
3.33507 -2.24362 -0.130331
3.1614 -2.50418 -0.200069
3.01246 -2.76926 -0.114007
2.84222 -2.95831 -0.144302
2.66055 -3.19561 -0.548556
2.5899 -3.46068 -0.742238
2.37273 -3.7085 -0.863686
2.22622 -3.89952 -0.938399
2.11688 -4.10444 -1.02525
1.9001 -4.30881 -0.874274
1.57616 -4.48918 -0.27596
0.99765 -4.69297 0.337833
0.526909 -4.88452 1.01136
0.590144 -5.12458 1.1325
0.631509 -5.1016 0.915005
0.252657 -5.08655 0.270454
0.0374025 -5.09906 -0.197448
0.038292 -5.01577 -0.514708
0.0199607 -5.10664 -0.559258
-0.052954 -5.02025 -0.536788
0.0541681 -5.03372 -0.627502
0.00155273 -5.08391 -0.662231
-0.0503426 -5.10256 -0.78687
-0.0329496 -5.06961 -0.902995
-0.055029 -5.11927 -0.864662
0.0154004 -5.06814 -0.855343
-0.0781168 -5.05866 -0.690813
0.0206143 -5.07555 -0.400137
0.00538231 -5.1274 -0.107008
0 -4.99812 0
0 0 0
3.83144 2.04861 0
3.83838 1.84235 -0.0180974
3.7558 1.5356 -0.337526
3.80925 1.37646 -0.787564
3.7293 1.10561 -1.19623
3.78812 0.882049 -1.25847
3.6598 0.655207 -0.960406
3.7212 0.446426 -0.716767
3.74181 0.132044 -0.438056
3.67565 0.00716437 -0.771193
3.66011 -0.3023 -1.11386
3.68528 -0.554238 -1.31326
3.6349 -0.77299 -1.12067
3.64876 -0.945772 -1.05188
3.63406 -1.28728 -0.883546
3.54194 -1.43142 -0.575417
3.49224 -1.60075 -0.0918229
3.36732 -1.82746 -0.0752738
3.31961 -1.99794 -0.351966
2.97122 -2.19509 -0.431701
2.99999 -2.45688 -0.326342
2.72345 -2.67255 -0.421388
2.61249 -2.92104 -0.71847
2.3516 -3.08446 -1.00867
2.31111 -3.38142 -1.3557
2.09832 -3.55498 -1.41148
2.02978 -3.82651 -1.44869
1.8234 -4.01727 -1.49162
1.67399 -4.25488 -1.11954
1.33968 -4.51732 -0.318259
0.964142 -4.60968 0.131347
0.658139 -4.87713 0.583684
0.518385 -5.01861 0.774835
0.388145 -5.0712 0.645083
0.142963 -5.04324 0.274092
0.0732846 -5.0593 -0.274809
-0.0229442 -5.02373 -0.665587
-0.0177939 -5.08662 -0.698185
-0.0151078 -5.07706 -0.688401
-0.0694231 -5.06058 -0.671354
-0.0214649 -5.13369 -0.887579
-0.0341152 -5.06987 -1.03837
-0.0597927 -5.06713 -1.20234
0.00348622 -5.04475 -1.19859
-0.0841068 -5.07842 -0.970514
-0.0476673 -5.06322 -0.694735
-0.0119779 -5.04974 -0.429674
0.000459359 -5.04087 -0.113767
0 -5.00701 0
0 0 0
3.53448 2.05405 0
3.60922 1.84657 -0.0399217
3.52898 1.6297 -0.244609
3.5608 1.41961 -0.666966
3.49298 1.149 -0.996259
3.5272 0.91593 -1.28263
3.43027 0.738625 -1.17554
3.43479 0.501356 -1.08602
3.43888 0.301232 -1.1241
3.39769 -0.0225943 -0.939196
3.46504 -0.235886 -1.20526
3.41607 -0.552889 -1.17059
3.46646 -0.669776 -1.1993
3.44082 -0.957292 -1.03453
3.35308 -1.22812 -0.87968
3.28551 -1.42147 -0.542043
3.22438 -1.56985 -0.448812
3.13963 -1.76825 -0.478189
2.91584 -1.99598 -0.406154
2.81954 -2.21499 -0.379882
2.76089 -2.40477 -0.408528
2.39592 -2.66396 -0.587461
2.41834 -2.86001 -1.13437
2.14324 -3.11138 -1.5284
2.03792 -3.30359 -1.68067
1.9855 -3.5177 -1.69226
1.74528 -3.79744 -1.4844
1.66963 -4.00756 -1.39021
1.49798 -4.26199 -1.16699
1.26868 -4.40205 -0.512066
0.882534 -4.62231 -0.0974516
0.54486 -4.79214 0.359472
0.409722 -5.01018 0.814695
0.351433 -5.09917 0.653529
0.205427 -5.06669 0.200667
0.0422571 -5.0546 -0.164849
0.0470973 -5.08139 -0.533604
-0.0373362 -5.05621 -0.734725
-0.0159848 -5.03688 -0.651028
-0.028149 -5.08875 -0.740283
-0.0155563 -5.07049 -0.822079
-0.0618615 -5.09328 -1.03459
-0.00598283 -5.04204 -1.05007
-0.031649 -5.12985 -1.11175
0.0216349 -5.04913 -0.750467
-0.0543583 -5.08158 -0.501588
-0.0598231 -5.08332 -0.303078
-0.000930985 -5.09285 -0.0352045
0 -4.97986 0
0 0 0
3.37077 2.13726 0
3.32889 1.81846 -0.0201093
3.27458 1.64892 -0.0206409
3.34692 1.36613 -0.325982
3.17313 1.08982 -0.571332
3.31189 0.964521 -0.955249
3.17993 0.60813 -1.22713
3.19586 0.432794 -1.3086
3.21528 0.190635 -1.28337
3.12407 0.00499544 -1.18003
3.20626 -0.323265 -1.04303
3.04616 -0.541586 -1.05367
3.16257 -0.759077 -0.87747
3.20933 -1.02572 -0.888484
3.10667 -1.16808 -0.813954
3.07618 -1.35762 -0.720446
3.06158 -1.55645 -0.641738
2.80131 -1.76245 -0.45456
2.74382 -1.99264 -0.443314
2.61569 -2.14975 -0.148092
2.4093 -2.37298 -0.438065
2.19182 -2.60117 -0.8572
2.17261 -2.86694 -1.26773
1.89336 -3.06735 -1.62166
1.8756 -3.2619 -1.66451
1.68154 -3.4696 -1.54418
1.57368 -3.76163 -1.44605
1.37665 -3.93737 -1.31849
1.19146 -4.19366 -1.18002
1.01257 -4.40801 -0.624821
0.712815 -4.61092 -0.170151
0.442632 -4.80243 0.36995
0.269004 -5.03624 0.649027
0.293586 -5.03665 0.55836
0.106364 -5.04894 0.119758
0.00256582 -5.08363 -0.259387
0.00905315 -5.07716 -0.520636
0.00339139 -5.07605 -0.642546
-0.0635688 -5.08592 -0.52465
-0.0304988 -5.09443 -0.474211
-0.0526643 -5.04717 -0.708918
-0.0758181 -5.07503 -0.831225
-0.045746 -5.12314 -0.896058
-0.0202335 -5.08961 -0.762314
-0.0449608 -5.02188 -0.497299
0.00988742 -5.07306 -0.38198
-0.0480998 -5.07606 -0.160441
-0.0181967 -5.04443 -0.0427909
0 -5.09803 0
0 0 0
3.09637 2.20766 0
3.03139 1.95895 0.047692
3.01643 1.69316 0.163001
3.07348 1.44111 -0.0270987
2.99508 1.21549 -0.280262
2.9848 1.01049 -0.454034
2.96197 0.769653 -0.870059
2.95396 0.401701 -0.888041
2.95502 0.267674 -0.863181
2.88879 0.00573293 -0.912168
2.94741 -0.252573 -0.864132
2.93035 -0.519348 -0.67804
2.92794 -0.655075 -0.802049
2.89106 -0.940114 -0.619054
2.82202 -1.04977 -0.834426
2.91998 -1.35826 -0.749588
2.78081 -1.50712 -0.404377
2.6329 -1.77831 -0.456973
2.46588 -1.9343 -0.463458
2.33965 -2.19105 -0.332428
2.1449 -2.41142 -0.517177
2.06535 -2.54928 -0.943453
1.8572 -2.79675 -1.24266
1.73895 -3.02559 -1.41081
1.54308 -3.20302 -1.35124
1.48063 -3.44734 -1.40716
1.27833 -3.71781 -1.1637
1.1334 -3.93342 -1.08578
0.971878 -4.14995 -1.05089
0.850309 -4.39498 -0.871459
0.558184 -4.55911 -0.241734
0.322583 -4.81476 0.302643
0.136681 -4.93881 0.512759
0.18789 -5.06346 0.478143
0.170614 -5.07693 0.151505
0.0191577 -5.03105 -0.261391
-0.00012111 -5.11711 -0.416392
-0.039689 -5.032 -0.306495
-0.0352623 -5.05764 -0.309475
-0.0365316 -5.04807 -0.349567
-0.0358751 -5.05145 -0.518321
-0.0247056 -5.11934 -0.587778
-0.0333237 -5.06687 -0.737992
-0.0022517 -5.14263 -0.554658
0.00894532 -5.01849 -0.482575
-0.0591907 -5.13116 -0.325326
-0.000866818 -4.9831 -0.20956
-0.00992162 -5.09347 -0.113183
0 -5.06172 0
0 0 0
2.87247 2.13223 0
2.83787 1.91352 0.0450429
2.73613 1.6247 0.167986
2.80992 1.3765 0.165675
2.74305 1.19831 -0.00611117
2.73167 0.957207 0.0589573
2.71387 0.741586 -0.134565
2.75581 0.473337 -0.214874
2.81672 0.205169 -0.234124
2.74831 -0.0435014 -0.313576
2.62786 -0.220307 -0.359817
2.74137 -0.454163 -0.508454
2.67132 -0.64918 -0.493842
2.65428 -0.926762 -0.376876
2.67929 -1.22087 -0.600748
2.57894 -1.3333 -0.393868
2.49113 -1.52528 -0.467203
2.45121 -1.71356 -0.177293
2.20426 -1.97006 -0.194088
2.06581 -2.12228 -0.373552
1.99317 -2.39484 -0.444156
1.75333 -2.56166 -0.554842
1.70483 -2.7394 -0.869256
1.46177 -2.9108 -0.870982
1.40696 -3.17977 -0.805963
1.22122 -3.37668 -0.76027
1.06286 -3.64755 -0.646075
0.859783 -3.77441 -0.573807
0.70636 -4.11149 -0.735319
0.527056 -4.32965 -0.42127
0.377834 -4.5803 -0.00282042
0.203522 -4.79515 0.312784
0.138021 -4.9081 0.25372
0.0668369 -4.99272 0.23441
0.0773703 -5.05209 0.188481
0.0844716 -5.05059 0.0257926
-0.0219174 -5.02935 -0.161924
-0.00722845 -5.04545 -0.0488889
-0.0456044 -5.03489 -0.0492025
-0.0139713 -5.03433 -0.227051
-0.0747094 -5.04967 -0.318135
-0.0113367 -5.09955 -0.28713
-0.0882079 -5.05077 -0.319403
0.0306737 -5.08848 -0.393876
0.00827121 -5.05344 -0.25234
-0.0359249 -5.04665 -0.176413
-0.0026567 -4.99815 -0.0157128
0.022864 -5.04567 -0.0705524
0 -5.04266 0
0 0 0
2.59409 2.20947 0
2.53505 1.93359 0.0237228
2.49184 1.72028 -0.0236748
2.54977 1.52508 0.0724666
2.5219 1.22376 0.110296
2.53286 0.957052 0.0700948
2.51877 0.727177 0.0902942
2.50805 0.551406 0.0259453
2.45206 0.20893 0.0938033
2.5137 0.0263107 0.0794632
2.49039 -0.241926 -0.157613
2.50765 -0.331255 -0.0606713
2.41391 -0.714936 -0.0550598
2.41398 -0.938224 -0.0227405
2.2941 -1.26249 0.088104
2.4915 -1.7031 -0.0812006
2.29807 -1.66453 -0.0475531
2.12955 -1.84069 -0.032078
2.03157 -2.03091 -0.00785881
1.87964 -2.11064 0.0237721
1.77344 -2.33491 -0.0155722
1.64243 -2.54453 -0.0355228
1.38167 -2.75479 -0.0528446
1.35941 -2.90657 -0.0643359
1.16859 -3.13144 -0.00903165
1.01278 -3.34919 -0.123267
0.87158 -3.5373 -0.015628
0.60449 -3.80198 -0.00183101
0.469255 -4.03305 0.0792561
0.262488 -4.32964 0.109794
0.182138 -4.59077 0.0939807
0.0931336 -4.74816 0.00671386
0.0264863 -4.81454 0.0232596
0.0229085 -4.93769 -0.0449343