# vtk DataFile Version 3.0
vtk output
ASCII
DATASET UNSTRUCTURED_GRID
FIELD FieldData 2
TIME 1 1 double
0
CYCLE 1 1 int
0
POINTS 4 float
0 0 0
0 2.5 0
10 0 0
10 2.5 0

CELLS 1 5
4 0 2 3 1

CELL_TYPES 1
9

POINT_DATA 4
SCALARS NODE_ID int 1
LOOKUP_TABLE default
15758
15783
18358
18383

CELL_DATA 1
SCALARS ELEMENT_ID int 1
LOOKUP_TABLE default
1000001

SCALARS PART_ID int 1
LOOKUP_TABLE default
3

SCALARS EROSION_STATUS int 1
LOOKUP_TABLE default
1

SCALARS 2DELEM_Pressure float 1
LOOKUP_TABLE default
0

