# vtk DataFile Version 3.0
vtk output
ASCII
DATASET UNSTRUCTURED_GRID
FIELD FieldData 2
TIME 1 1 double
4.00144
CYCLE 1 1 int
0
POINTS 8 float
-1.01633 -1.01633 0
101.016 -1.01633 0
101.016 101.016 0
-1.01633 101.016 0
-1.01633 -1.01633 95.9986
101.016 -1.01633 95.9986
101.016 101.016 95.9986
-1.01633 101.016 95.9986

CELLS 1 9
8 0  1  2  3  4  5  6  7

CELL_TYPES 1
12

POINT_DATA 8
SCALARS NODE_ID int 1
LOOKUP_TABLE default
1
2
3
4
5
6
7
8

VECTORS Velocity float
-0.265049 -0.265049 0
0.265049 -0.265049 0
0.265049 0.265049 0
-0.265049 0.265049 0
-0.265049 -0.265049 -1
0.265049 -0.265049 -1
0.265049 0.265049 -1
-0.265049 0.265049 -1

VECTORS Acceleration float
-0.00421209 -0.00421209 0
0.00421209 -0.00421209 0
0.00421209 0.00421209 0
-0.00421209 0.00421209 0
-0.00421209 -0.00421209 0
0.00421209 -0.00421209 0
0.00421209 0.00421209 0
-0.00421209 0.00421209 0

VECTORS Internal_Forces float
-4.10679 -4.10679 -789203
4.10679 -4.10679 -789203
4.10679 4.10679 -789203
-4.10679 4.10679 -789203
-4.10679 -4.10679 789203
4.10679 -4.10679 789203
4.10679 4.10679 789203
-4.10679 4.10679 789203

CELL_DATA 1
SCALARS ELEMENT_ID int 1
LOOKUP_TABLE default
1

SCALARS PART_ID int 1
LOOKUP_TABLE default
1

SCALARS EROSION_STATUS int 1
LOOKUP_TABLE default
1

SCALARS 3DELEM_Pressure float 1
LOOKUP_TABLE default
101.077

SCALARS 3DELEM_Stress_X_ float 1
LOOKUP_TABLE default
-0.0016771

SCALARS 3DELEM_Stress_Y_ float 1
LOOKUP_TABLE default
-0.0016771

SCALARS 3DELEM_Stress_Z_ float 1
LOOKUP_TABLE default
-303.229

