# vtk DataFile Version 3.0
vtk output
ASCII
DATASET UNSTRUCTURED_GRID
FIELD FieldData 2
TIME 1 1 double
0
CYCLE 1 1 int
0
POINTS 344 float
10 9 0
10 6 0
10 3 0
10 17 0
10 20 0
10 14 0
10 19.5 1.47711e-17
10 15.5 0
10 12.75 0
10 10.5 0
10 7.25 0
10 4.125 -1.84639e-17
10 20 1
10 18 1
0 18 1
0 20 1
10 20 -1
10 18 -1
0 18 -1
0 20 -1
10 17 1
10 15 1
0 15 1
0 17 1
5 15 1
5 17 1
5 15 -1
0 15 -1
0 17 -1
5 17 -1
10 17 -1
10 15 -1
10 14 1
10 12 1
0 12 1
0 14 1
7.5 12 1
2.5 14 1
7.5 12 -1
0 12 -1
0 14 -1
2.5 14 -1
10 14 -1
10 12 -1
0 9 -1
2 9 -1
4 9 -1
6 9 -1
8 9 -1
10 9 -1
0 11 -1
2 11 -1
4 11 -1
6 11 -1
8 11 -1
10 11 -1
0 9 1
2 9 1
2 11 1
0 11 1
4 9 1
4 11 1
6 9 1
6 11 1
8 9 1
8 11 1
10 9 1
10 11 1
0 6 -1
1 6 -1
2 6 -1
3 6 -1
4 6 -1
5 6 -1
6 6 -1
7 6 -1
8 6 -1
9 6 -1
10 6 -1
0 7 -1
1 7 -1
2 7 -1
3 7 -1
4 7 -1
5 7 -1
6 7 -1
7 7 -1
8 7 -1
9 7 -1
10 7 -1
0 8 -1
1 8 -1
2 8 -1
3 8 -1
4 8 -1
5 8 -1
6 8 -1
7 8 -1
8 8 -1
9 8 -1
10 8 -1
0 6 1
1 6 1
1 7 1
0 7 1
2 6 1
2 7 1
3 6 1
3 7 1
4 6 1
4 7 1
5 6 1
5 7 1
6 6 1
6 7 1
7 6 1
7 7 1
8 6 1
8 7 1
9 6 1
9 7 1
10 6 1
10 7 1
1 8 1
0 8 1
2 8 1
3 8 1
4 8 1
5 8 1
6 8 1
7 8 1
8 8 1
9 8 1
10 8 1
0 3 -1
0.5 3 -1
1 3 -1
1.5 3 -1
2 3 -1
2.5 3 -1
3 3 -1
3.5 3 -1
4 3 -1
4.5 3 -1
5 3 -1
5.5 3 -1
6 3 -1
6.5 3 -1
7 3 -1
7.5 3 -1
8 3 -1
8.5 3 -1
9 3 -1
9.5 3 -1
10 3 -1
0 3.5 -1
0.5 3.5 -1
1 3.5 -1
1.5 3.5 -1
2 3.5 -1
2.5 3.5 -1
3 3.5 -1
3.5 3.5 -1
4 3.5 -1
4.5 3.5 -1
5 3.5 -1
5.5 3.5 -1
6 3.5 -1
6.5 3.5 -1
7 3.5 -1
7.5 3.5 -1
8 3.5 -1
8.5 3.5 -1
9 3.5 -1
9.5 3.5 -1
10 3.5 -1
0 4 -1
0.5 4 -1
1 4 -1
1.5 4 -1
2 4 -1
2.5 4 -1
3 4 -1
3.5 4 -1
4 4 -1
4.5 4 -1
5 4 -1
5.5 4 -1
6 4 -1
6.5 4 -1
7 4 -1
7.5 4 -1
8 4 -1
8.5 4 -1
9 4 -1
9.5 4 -1
10 4 -1
0 4.5 -1
0.5 4.5 -1
1 4.5 -1
1.5 4.5 -1
2 4.5 -1
2.5 4.5 -1
3 4.5 -1
3.5 4.5 -1
4 4.5 -1
4.5 4.5 -1
5 4.5 -1
5.5 4.5 -1
6 4.5 -1
6.5 4.5 -1
7 4.5 -1
7.5 4.5 -1
8 4.5 -1
8.5 4.5 -1
9 4.5 -1
9.5 4.5 -1
10 4.5 -1
0 5 -1
0.5 5 -1
1 5 -1
1.5 5 -1
2 5 -1
2.5 5 -1
3 5 -1
3.5 5 -1
4 5 -1
4.5 5 -1
5 5 -1
5.5 5 -1
6 5 -1
6.5 5 -1
7 5 -1
7.5 5 -1
8 5 -1
8.5 5 -1
9 5 -1
9.5 5 -1
10 5 -1
0 3 1
0.5 3 1
0.5 3.5 1
0 3.5 1
1 3 1
1 3.5 1
1.5 3 1
1.5 3.5 1
2 3 1
2 3.5 1
2.5 3 1
2.5 3.5 1
3 3 1
3 3.5 1
3.5 3 1
3.5 3.5 1
4 3 1
4 3.5 1
4.5 3 1
4.5 3.5 1
5 3 1
5 3.5 1
5.5 3 1
5.5 3.5 1
6 3 1
6 3.5 1
6.5 3 1
6.5 3.5 1
7 3 1
7 3.5 1
7.5 3 1
7.5 3.5 1
8 3 1
8 3.5 1
8.5 3 1
8.5 3.5 1
9 3 1
9 3.5 1
9.5 3 1
9.5 3.5 1
10 3 1
10 3.5 1
0.5 4 1
0 4 1
1 4 1
1.5 4 1
2 4 1
2.5 4 1
3 4 1
3.5 4 1
4 4 1
4.5 4 1
5 4 1
5.5 4 1
6 4 1
6.5 4 1
7 4 1
7.5 4 1
8 4 1
8.5 4 1
9 4 1
9.5 4 1
10 4 1
0.5 4.5 1
0 4.5 1
1 4.5 1
1.5 4.5 1
2 4.5 1
2.5 4.5 1
3 4.5 1
3.5 4.5 1
4 4.5 1
4.5 4.5 1
5 4.5 1
5.5 4.5 1
6 4.5 1
6.5 4.5 1
7 4.5 1
7.5 4.5 1
8 4.5 1
8.5 4.5 1
9 4.5 1
9.5 4.5 1
10 4.5 1
0.5 5 1
0 5 1
1 5 1
1.5 5 1
2 5 1
2.5 5 1
3 5 1
3.5 5 1
4 5 1
4.5 5 1
5 5 1
5.5 5 1
6 5 1
6.5 5 1
7 5 1
7.5 5 1
8 5 1
8.5 5 1
9 5 1
9.5 5 1
10 5 1

CELLS 258 2094
2 6 4
2 6 12
2 6 13
2 6 16
2 6 17
2 7 3
2 7 20
2 7 21
2 7 30
2 7 31
2 8 5
2 8 32
2 8 33
2 8 42
2 8 43
2 9 0
2 9 49
2 9 55
2 9 66
2 9 67
2 10 1
2 10 78
2 10 89
2 10 100
2 10 121
2 10 122
2 10 133
2 11 2
2 11 154
2 11 175
2 11 196
2 11 217
2 11 238
2 11 279
2 11 280
2 11 301
2 11 322
2 11 343
8 12  13  14  12  16  17  18  16
8 14  15  12  14  18  19  16  18
8 24  22  23  24  26  27  28  26
8 23  25  24  23  28  29  26  28
8 25  20  21  25  29  30  31  29
8 21  24  25  21  31  26  29  31
8 36  34  35  36  38  39  40  38
8 35  37  36  35  40  41  38  40
8 37  32  33  37  41  42  43  41
8 33  36  37  33  43  38  41  43
8 44  45  51  44  56  57  58  56
8 51  50  44  51  58  59  56  58
8 45  46  52  45  57  60  61  57
8 52  51  45  52  61  58  57  61
8 46  47  53  46  60  62  63  60
8 53  52  46  53  63  61  60  63
8 47  48  54  47  62  64  65  62
8 54  53  47  54  65  63  62  65
8 48  49  55  48  64  66  67  64
8 55  54  48  55  67  65  64  67
8 68  69  80  68  101  102  103  101
8 80  79  68  80  103  104  101  103
8 69  70  81  69  102  105  106  102
8 81  80  69  81  106  103  102  106
8 70  71  82  70  105  107  108  105
8 82  81  70  82  108  106  105  108
8 71  72  83  71  107  109  110  107
8 83  82  71  83  110  108  107  110
8 72  73  84  72  109  111  112  109
8 84  83  72  84  112  110  109  112
8 73  74  85  73  111  113  114  111
8 85  84  73  85  114  112  111  114
8 74  75  86  74  113  115  116  113
8 86  85  74  86  116  114  113  116
8 75  76  87  75  115  117  118  115
8 87  86  75  87  118  116  115  118
8 76  77  88  76  117  119  120  117
8 88  87  76  88  120  118  117  120
8 77  78  89  77  119  121  122  119
8 89  88  77  89  122  120  119  122
8 79  80  91  79  104  103  123  104
8 91  90  79  91  123  124  104  123
8 80  81  92  80  103  106  125  103
8 92  91  80  92  125  123  103  125
8 81  82  93  81  106  108  126  106
8 93  92  81  93  126  125  106  126
8 82  83  94  82  108  110  127  108
8 94  93  82  94  127  126  108  127
8 83  84  95  83  110  112  128  110
8 95  94  83  95  128  127  110  128
8 84  85  96  84  112  114  129  112
8 96  95  84  96  129  128  112  129
8 85  86  97  85  114  116  130  114
8 97  96  85  97  130  129  114  130
8 86  87  98  86  116  118  131  116
8 98  97  86  98  131  130  116  131
8 87  88  99  87  118  120  132  118
8 99  98  87  99  132  131  118  132
8 88  89  100  88  120  122  133  120
8 100  99  88  100  133  132  120  133
8 145  146  167  145  261  263  264  261
8 146  147  168  146  263  265  266  263
8 168  167  146  168  266  264  263  266
8 147  148  169  147  265  267  268  265
8 169  168  147  169  268  266  265  268
8 148  149  170  148  267  269  270  267
8 170  169  148  170  270  268  267  270
8 149  150  171  149  269  271  272  269
8 171  170  149  171  272  270  269  272
8 150  151  172  150  271  273  274  271
8 172  171  150  172  274  272  271  274
8 151  152  173  151  273  275  276  273
8 173  172  151  173  276  274  273  276
8 152  153  174  152  275  277  278  275
8 174  173  152  174  278  276  275  278
8 153  154  175  153  277  279  280  277
8 175  174  153  175  280  278  277  280
8 167  168  189  167  264  266  294  264
8 168  169  190  168  266  268  295  266
8 190  189  168  190  295  294  266  295
8 169  170  191  169  268  270  296  268
8 191  190  169  191  296  295  268  296
8 170  171  192  170  270  272  297  270
8 192  191  170  192  297  296  270  297
8 171  172  193  171  272  274  298  272
8 193  192  171  193  298  297  272  298
8 172  173  194  172  274  276  299  274
8 194  193  172  194  299  298  274  299
8 173  174  195  173  276  278  300  276
8 195  194  173  195  300  299  276  300
8 174  175  196  174  278  280  301  278
8 196  195  174  196  301  300  278  301
8 189  190  211  189  294  295  316  294
8 190  191  212  190  295  296  317  295
8 212  211  190  212  317  316  295  317
8 191  192  213  191  296  297  318  296
8 213  212  191  213  318  317  296  318
8 192  193  214  192  297  298  319  297
8 214  213  192  214  319  318  297  319
8 193  194  215  193  298  299  320  298
8 215  214  193  215  320  319  298  320
8 194  195  216  194  299  300  321  299
8 216  215  194  216  321  320  299  321
8 195  196  217  195  300  301  322  300
8 217  216  195  217  322  321  300  322
8 211  212  233  211  316  317  338  316
8 212  213  234  212  317  318  339  317
8 234  233  212  234  339  338  317  339
8 213  214  235  213  318  319  340  318
8 235  234  213  235  340  339  318  340
8 214  215  236  214  319  320  341  319
8 236  235  214  236  341  340  319  341
8 215  216  237  215  320  321  342  320
8 237  236  215  237  342  341  320  342
8 216  217  238  216  321  322  343  321
8 238  237  216  238  343  342  321  343
8 139  140  161  139  249  251  252  249
8 161  160  139  161  252  250  249  252
8 140  141  162  140  251  253  254  251
8 162  161  140  162  254  252  251  254
8 141  142  163  141  253  255  256  253
8 163  162  141  163  256  254  253  256
8 142  143  164  142  255  257  258  255
8 164  163  142  164  258  256  255  258
8 143  144  165  143  257  259  260  257
8 165  164  143  165  260  258  257  260
8 144  145  166  144  259  261  262  259
8 166  165  144  166  262  260  259  262
8 167  166  145  167  264  262  261  264
8 161  162  183  161  252  254  288  252
8 183  182  161  183  288  287  252  288
8 162  163  184  162  254  256  289  254
8 184  183  162  184  289  288  254  289
8 163  164  185  163  256  258  290  256
8 185  184  163  185  290  289  256  290
8 164  165  186  164  258  260  291  258
8 186  185  164  186  291  290  258  291
8 165  166  187  165  260  262  292  260
8 187  186  165  187  292  291  260  292
8 166  167  188  166  262  264  293  262
8 188  187  166  188  293  292  262  293
8 189  188  167  189  294  293  264  294
8 182  183  204  182  287  288  309  287
8 183  184  205  183  288  289  310  288
8 205  204  183  205  310  309  288  310
8 184  185  206  184  289  290  311  289
8 206  205  184  206  311  310  289  311
8 185  186  207  185  290  291  312  290
8 207  206  185  207  312  311  290  312
8 186  187  208  186  291  292  313  291
8 208  207  186  208  313  312  291  313
8 187  188  209  187  292  293  314  292
8 209  208  187  209  314  313  292  314
8 188  189  210  188  293  294  315  293
8 210  209  188  210  315  314  293  315
8 211  210  189  211  316  315  294  316
8 204  205  226  204  309  310  331  309
8 205  206  227  205  310  311  332  310
8 227  226  205  227  332  331  310  332
8 206  207  228  206  311  312  333  311
8 228  227  206  228  333  332  311  333
8 207  208  229  207  312  313  334  312
8 229  228  207  229  334  333  312  334
8 208  209  230  208  313  314  335  313
8 230  229  208  230  335  334  313  335
8 209  210  231  209  314  315  336  314
8 231  230  209  231  336  335  314  336
8 210  211  232  210  315  316  337  315
8 232  231  210  232  337  336  315  337
8 233  232  211  233  338  337  316  338
8 134  135  156  134  239  240  241  239
8 156  155  134  156  241  242  239  241
8 135  136  157  135  240  243  244  240
8 157  156  135  157  244  241  240  244
8 136  137  158  136  243  245  246  243
8 158  157  136  158  246  244  243  246
8 137  138  159  137  245  247  248  245
8 159  158  137  159  248  246  245  248
8 138  139  160  138  247  249  250  247
8 160  159  138  160  250  248  247  250
8 155  156  177  155  242  241  281  242
8 177  176  155  177  281  282  242  281
8 156  157  178  156  241  244  283  241
8 178  177  156  178  283  281  241  283
8 157  158  179  157  244  246  284  244
8 179  178  157  179  284  283  244  284
8 158  159  180  158  246  248  285  246
8 180  179  158  180  285  284  246  285
8 159  160  181  159  248  250  286  248
8 181  180  159  181  286  285  248  286
8 160  161  182  160  250  252  287  250
8 182  181  160  182  287  286  250  287
8 176  177  198  176  282  281  302  282
8 198  197  176  198  302  303  282  302
8 177  178  199  177  281  283  304  281
8 199  198  177  199  304  302  281  304
8 178  179  200  178  283  284  305  283
8 200  199  178  200  305  304  283  305
8 179  180  201  179  284  285  306  284
8 201  200  179  201  306  305  284  306
8 180  181  202  180  285  286  307  285
8 202  201  180  202  307  306  285  307
8 181  182  203  181  286  287  308  286
8 203  202  181  203  308  307  286  308
8 204  203  182  204  309  308  287  309
8 197  198  219  197  303  302  323  303
8 219  218  197  219  323  324  303  323
8 198  199  220  198  302  304  325  302
8 220  219  198  220  325  323  302  325
8 199  200  221  199  304  305  326  304
8 221  220  199  221  326  325  304  326
8 200  201  222  200  305  306  327  305
8 222  221  200  222  327  326  305  327
8 201  202  223  201  306  307  328  306
8 223  222  201  223  328  327  306  328
8 202  203  224  202  307  308  329  307
8 224  223  202  224  329  328  307  329
8 203  204  225  203  308  309  330  308
8 225  224  203  225  330  329  308  330
8 226  225  204  226  331  330  309  331

CELL_TYPES 258
3
3
3
3
3
3
3
3
3
3
3
3
3
3
3
3
3
3
3
3
3
3
3
3
3
3
3
3
3
3
3
3
3
3
3
3
3
3
12
12
12
12
12
12
12
12
12
12
12
12
12
12
12
12
12
12
12
12
12
12
12
12
12
12
12
12
12
12
12
12
12
12
12
12
12
12
12
12
12
12
12
12
12
12
12
12
12
12
12
12
12
12
12
12
12
12
12
12
12
12
12
12
12
12
12
12
12
12
12
12
12
12
12
12
12
12
12
12
12
12
12
12
12
12
12
12
12
12
12
12
12
12
12
12
12
12
12
12
12
12
12
12
12
12
12
12
12
12
12
12
12
12
12
12
12
12
12
12
12
12
12
12
12
12
12
12
12
12
12
12
12
12
12
12
12
12
12
12
12
12
12
12
12
12
12
12
12
12
12
12
12
12
12
12
12
12
12
12
12
12
12
12
12
12
12
12
12
12
12
12
12
12
12
12
12
12
12
12
12
12
12
12
12
12
12
12
12
12
12
12
12
12
12
12
12
12
12
12
12
12
12
12
12
12
12
12
12
12
12
12
12
12
12
12
12
12
12
12

POINT_DATA 344
SCALARS NODE_ID int 1
LOOKUP_TABLE default
6
23
66
606
660
1115
1457
1458
1459
1460
1461
1462
1795
1796
1797
1798
1799
1800
1801
1802
1803
1804
1805
1806
1807
1808
1809
1810
1811
1812
1813
1814
1815
1816
1817
1818
1819
1820
1821
1822
1823
1824
1825
1826
1827
1828
1829
1830
1831
1832
1833
1834
1835
1836
1837
1838
1839
1840
1841
1842
1843
1844
1845
1846
1847
1848
1849
1850
1851
1852
1853
1854
1855
1856
1857
1858
1859
1860
1861
1862
1863
1864
1865
1866
1867
1868
1869
1870
1871
1872
1873
1874
1875
1876
1877
1878
1879
1880
1881
1882
1883
1884
1885
1886
1887
1888
1889
1890
1891
1892
1893
1894
1895
1896
1897
1898
1899
1900
1901
1902
1903
1904
1905
1906
1907
1908
1909
1910
1911
1912
1913
1914
1915
1916
1917
1918
1919
1920
1921
1922
1923
1924
1925
1926
1927
1928
1929
1930
1931
1932
1933
1934
1935
1936
1937
1938
1939
1940
1941
1942
1943
1944
1945
1946
1947
1948
1949
1950
1951
1952
1953
1954
1955
1956
1957
1958
1959
1960
1961
1962
1963
1964
1965
1966
1967
1968
1969
1970
1971
1972
1973
1974
1975
1976
1977
1978
1979
1980
1981
1982
1983
1984
1985
1986
1987
1988
1989
1990
1991
1992
1993
1994
1995
1996
1997
1998
1999
2000
2001
2002
2003
2004
2005
2006
2007
2008
2009
2010
2011
2012
2013
2014
2015
2016
2017
2018
2019
2020
2021
2022
2023
2024
2025
2026
2027
2028
2029
2030
2031
2032
2033
2034
2035
2036
2037
2038
2039
2040
2041
2042
2043
2044
2045
2046
2047
2048
2049
2050
2051
2052
2053
2054
2055
2056
2057
2058
2059
2060
2061
2062
2063
2064
2065
2066
2067
2068
2069
2070
2071
2072
2073
2074
2075
2076
2077
2078
2079
2080
2081
2082
2083
2084
2085
2086
2087
2088
2089
2090
2091
2092
2093
2094
2095
2096
2097
2098
2099
2100
2101
2102
2103
2104
2105
2106
2107
2108
2109
2110
2111
2112
2113
2114
2115
2116
2117
2118
2119
2120
2121
2122
2123
2124
2125
2126

VECTORS Velocity float
0 0 0
0 0 0
0 0 0
0 0 0
0 0 0
0 0 0
0 0 0
0 0 0
0 0 0
0 0 0
0 0 0
0 0 0
0 0 0
0 0 0
0 0 0
0 0 0
0 0 0
0 0 0
0 0 0
0 0 0
0 0 0
0 0 0
0 0 0
0 0 0
0 0 0
0 0 0
0 0 0
0 0 0
0 0 0
0 0 0
0 0 0
0 0 0
0 0 0
0 0 0
0 0 0
0 0 0
0 0 0
0 0 0
0 0 0
0 0 0
0 0 0
0 0 0
0 0 0
0 0 0
0 0 0
0 0 0
0 0 0
0 0 0
0 0 0
0 0 0
0 0 0
0 0 0
0 0 0
0 0 0
0 0 0
0 0 0
0 0 0
0 0 0
0 0 0
0 0 0
0 0 0
0 0 0
0 0 0
0 0 0
0 0 0
0 0 0
0 0 0
0 0 0
0 0 0
0 0 0
0 0 0
0 0 0
0 0 0
0 0 0
0 0 0
0 0 0
0 0 0
0 0 0
0 0 0
0 0 0
0 0 0
0 0 0
0 0 0
0 0 0
0 0 0
0 0 0
0 0 0
0 0 0
0 0 0
0 0 0
0 0 0
0 0 0
0 0 0
0 0 0
0 0 0
0 0 0
0 0 0
0 0 0
0 0 0
0 0 0
0 0 0
0 0 0
0 0 0
0 0 0
0 0 0
0 0 0
0 0 0
0 0 0
0 0 0
0 0 0
0 0 0
0 0 0
0 0 0
0 0 0
0 0 0
0 0 0
0 0 0
0 0 0
0 0 0
0 0 0
0 0 0
0 0 0
0 0 0
0 0 0
0 0 0
0 0 0
0 0 0
0 0 0
0 0 0
0 0 0
0 0 0
0 0 0
0 0 0
0 0 0
0 0 0
0 0 0
0 0 0
0 0 0
0 0 0
0 0 0
0 0 0
0 0 0
0 0 0
0 0 0
0 0 0
0 0 0
0 0 0
0 0 0
0 0 0
0 0 0
0 0 0
0 0 0
0 0 0
0 0 0
0 0 0
0 0 0
0 0 0
0 0 0
0 0 0
0 0 0
0 0 0
0 0 0
0 0 0
0 0 0
0 0 0
0 0 0
0 0 0
0 0 0
0 0 0
0 0 0
0 0 0
0 0 0
0 0 0
0 0 0
0 0 0
0 0 0
0 0 0
0 0 0
0 0 0
0 0 0
0 0 0
0 0 0
0 0 0
0 0 0
0 0 0
0 0 0
0 0 0
0 0 0
0 0 0
0 0 0
0 0 0
0 0 0
0 0 0
0 0 0
0 0 0
0 0 0
0 0 0
0 0 0
0 0 0
0 0 0
0 0 0
0 0 0
0 0 0
0 0 0
0 0 0
0 0 0
0 0 0
0 0 0
0 0 0
0 0 0
0 0 0
0 0 0
0 0 0
0 0 0
0 0 0
0 0 0
0 0 0
0 0 0
0 0 0
0 0 0
0 0 0
0 0 0
0 0 0
0 0 0
0 0 0
0 0 0
0 0 0
0 0 0
0 0 0
0 0 0
0 0 0
0 0 0
0 0 0
0 0 0
0 0 0
0 0 0
0 0 0
0 0 0
0 0 0
0 0 0
0 0 0
0 0 0
0 0 0
0 0 0
0 0 0
0 0 0
0 0 0
0 0 0
0 0 0
0 0 0
0 0 0
0 0 0
0 0 0
0 0 0
0 0 0
0 0 0
0 0 0
0 0 0
0 0 0
0 0 0
0 0 0
0 0 0
0 0 0
0 0 0
0 0 0
0 0 0
0 0 0
0 0 0
0 0 0
0 0 0
0 0 0
0 0 0
0 0 0
0 0 0
0 0 0
0 0 0
0 0 0
0 0 0
0 0 0
0 0 0
0 0 0
0 0 0
0 0 0
0 0 0
0 0 0
0 0 0
0 0 0
0 0 0
0 0 0
0 0 0
0 0 0
0 0 0
0 0 0
0 0 0
0 0 0
0 0 0
0 0 0
0 0 0
0 0 0
0 0 0
0 0 0
0 0 0
0 0 0
0 0 0
0 0 0
0 0 0
0 0 0
0 0 0
0 0 0
0 0 0
0 0 0
0 0 0
0 0 0
0 0 0
0 0 0
0 0 0
0 0 0
0 0 0
0 0 0
0 0 0
0 0 0
0 0 0
0 0 0
0 0 0
0 0 0
0 0 0
0 0 0
0 0 0
0 0 0
0 0 0
0 0 0
0 0 0
0 0 0
0 0 0
0 0 0
0 0 0
0 0 0
0 0 0
0 0 0
0 0 0
0 0 0
0 0 0
0 0 0
0 0 0

CELL_DATA 258
SCALARS ELEMENT_ID int 1
LOOKUP_TABLE default
0
0
0
0
0
0
0
0
0
0
0
0
0
0
0
0
0
0
0
0
0
0
0
0
0
0
0
0
0
0
0
0
0
0
0
0
0
0
1
2
3
4
5
6
7
8
9
10
11
12
13
14
15
16
17
18
19
20
21
22
23
24
25
26
27
28
29
30
31
32
33
34
35
36
37
38
39
40
41
42
43
44
45
46
47
48
49
50
51
52
53
54
55
56
57
58
59
60
83
85
86
87
88
89
90
91
92
93
94
95
96
97
98
99
100
125
127
128
129
130
131
132
133
134
135
136
137
138
139
140
167
169
170
171
172
173
174
175
176
177
178
179
180
209
211
212
213
214
215
216
217
218
219
220
71
72
73
74
75
76
77
78
79
80
81
82
84
113
114
115
116
117
118
119
120
121
122
123
124
126
153
155
156
157
158
159
160
161
162
163
164
165
166
168
195
197
198
199
200
201
202
203
204
205
206
207
208
210
61
62
63
64
65
66
67
68
69
70
101
102
103
104
105
106
107
108
109
110
111
112
141
142
143
144
145
146
147
148
149
150
151
152
154
181
182
183
184
185
186
187
188
189
190
191
192
193
194
196

SCALARS PART_ID int 1
LOOKUP_TABLE default
713
713
713
713
713
714
714
714
714
714
715
715
715
715
715
716
716
716
716
716
717
717
717
717
717
717
717
718
718
718
718
718
718
718
718
718
718
718
15
15
16
16
16
16
17
17
17
17
18
18
18
18
18
18
18
18
18
18
19
19
19
19
19
19
19
19
19
19
19
19
19
19
19
19
19
19
19
19
19
19
19
19
19
19
19
19
19
19
19
19
19
19
19
19
19
19
19
19
20
20
20
20
20
20
20
20
20
20
20
20
20
20
20
20
20
20
20
20
20
20
20
20
20
20
20
20
20
20
20
20
20
20
20
20
20
20
20
20
20
20
20
20
20
20
20
20
20
20
20
20
20
20
20
20
20
20
20
20
20
20
20
20
20
20
20
20
20
20
20
20
20
20
20
20
20
20
20
20
20
20
20
20
20
20
20
20
20
20
20
20
20
20
20
20
20
20
20
20
20
20
20
20
20
20
20
20
20
20
20
20
20
20
20
20
20
20
20
20
20
20
20
20
20
20
20
20
20
20
20
20
20
20
20
20
20
20
20
20
20
20
20
20
20
20
20
20
20
20
20
20
20
20
20
20
20
20
20
20

SCALARS EROSION_STATUS int 1
LOOKUP_TABLE default
1
1
1
1
1
1
1
1
1
1
1
1
1
1
1
1
1
1
1
1
1
1
1
1
1
1
1
1
1
1
1
1
1
1
1
1
1
1
1
1
1
1
1
1
1
1
1
1
1
1
1
1
1
1
1
1
1
1
1
1
1
1
1
1
1
1
1
1
1
1
1
1
1
1
1
1
1
1
1
1
1
1
1
1
1
1
1
1
1
1
1
1
1
1
1
1
1
1
1
1
1
1
1
1
1
1
1
1
1
1
1
1
1
1
1
1
1
1
1
1
1
1
1
1
1
1
1
1
1
1
1
1
1
1
1
1
1
1
1
1
1
1
1
1
1
1
1
1
1
1
1
1
1
1
1
1
1
1
1
1
1
1
1
1
1
1
1
1
1
1
1
1
1
1
1
1
1
1
1
1
1
1
1
1
1
1
1
1
1
1
1
1
1
1
1
1
1
1
1
1
1
1
1
1
1
1
1
1
1
1
1
1
1
1
1
1
1
1
1
1
1
1
1
1
1
1
1
1
1
1
1
1
1
1
1
1
1
1
1
1
1
1
1
1
1
1
1
1
1
1
1
1
1
1
1
1
1
1

SCALARS 1DELEM_Plastic_Strain float 1
LOOKUP_TABLE default
0
0
0
0
0
0
0
0
0
0
0
0
0
0
0
0
0
0
0
0
0
0
0
0
0
0
0
0
0
0
0
0
0
0
0
0
0
0
0
0
0
0
0
0
0
0
0
0
0
0
0
0
0
0
0
0
0
0
0
0
0
0
0
0
0
0
0
0
0
0
0
0
0
0
0
0
0
0
0
0
0
0
0
0
0
0
0
0
0
0
0
0
0
0
0
0
0
0
0
0
0
0
0
0
0
0
0
0
0
0
0
0
0
0
0
0
0
0
0
0
0
0
0
0
0
0
0
0
0
0
0
0
0
0
0
0
0
0
0
0
0
0
0
0
0
0
0
0
0
0
0
0
0
0
0
0
0
0
0
0
0
0
0
0
0
0
0
0
0
0
0
0
0
0
0
0
0
0
0
0
0
0
0
0
0
0
0
0
0
0
0
0
0
0
0
0
0
0
0
0
0
0
0
0
0
0
0
0
0
0
0
0
0
0
0
0
0
0
0
0
0
0
0
0
0
0
0
0
0
0
0
0
0
0
0
0
0
0
0
0
0
0
0
0
0
0
0
0
0
0
0
0
0
0
0
0
0
0

SCALARS 1DELEM_Specific_Energy float 1
LOOKUP_TABLE default
0
0
0
0
0
0
0
0
0
0
0
0
0
0
0
0
0
0
0
0
0
0
0
0
0
0
0
0
0
0
0
0
0
0
0
0
0
0
0
0
0
0
0
0
0
0
0
0
0
0
0
0
0
0
0
0
0
0
0
0
0
0
0
0
0
0
0
0
0
0
0
0
0
0
0
0
0
0
0
0
0
0
0
0
0
0
0
0
0
0
0
0
0
0
0
0
0
0
0
0
0
0
0
0
0
0
0
0
0
0
0
0
0
0
0
0
0
0
0
0
0
0
0
0
0
0
0
0
0
0
0
0
0
0
0
0
0
0
0
0
0
0
0
0
0
0
0
0
0
0
0
0
0
0
0
0
0
0
0
0
0
0
0
0
0
0
0
0
0
0
0
0
0
0
0
0
0
0
0
0
0
0
0
0
0
0
0
0
0
0
0
0
0
0
0
0
0
0
0
0
0
0
0
0
0
0
0
0
0
0
0
0
0
0
0
0
0
0
0
0
0
0
0
0
0
0
0
0
0
0
0
0
0
0
0
0
0
0
0
0
0
0
0
0
0
0
0
0
0
0
0
0
0
0
0
0
0
0

SCALARS 1DELEM_Von_Mises float 1
LOOKUP_TABLE default
0
0
0
0
0
0
0
0
0
0
0
0
0
0
0
0
0
0
0
0
0
0
0
0
0
0
0
0
0
0
0
0
0
0
0
0
0
0
0
0
0
0
0
0
0
0
0
0
0
0
0
0
0
0
0
0
0
0
0
0
0
0
0
0
0
0
0
0
0
0
0
0
0
0
0
0
0
0
0
0
0
0
0
0
0
0
0
0
0
0
0
0
0
0
0
0
0
0
0
0
0
0
0
0
0
0
0
0
0
0
0
0
0
0
0
0
0
0
0
0
0
0
0
0
0
0
0
0
0
0
0
0
0
0
0
0
0
0
0
0
0
0
0
0
0
0
0
0
0
0
0
0
0
0
0
0
0
0
0
0
0
0
0
0
0
0
0
0
0
0
0
0
0
0
0
0
0
0
0
0
0
0
0
0
0
0
0
0
0
0
0
0
0
0
0
0
0
0
0
0
0
0
0
0
0
0
0
0
0
0
0
0
0
0
0
0
0
0
0
0
0
0
0
0
0
0
0
0
0
0
0
0
0
0
0
0
0
0
0
0
0
0
0
0
0
0
0
0
0
0
0
0
0
0
0
0
0
0

SCALARS 3DELEM_Plastic_Strain float 1
LOOKUP_TABLE default
0
0
0
0
0
0
0
0
0
0
0
0
0
0
0
0
0
0
0
0
0
0
0
0
0
0
0
0
0
0
0
0
0
0
0
0
0
0
0
0
0
0
0
0
0
0
0
0
0
0
0
0
0
0
0
0
0
0
0
0
0
0
0
0
0
0
0
0
0
0
0
0
0
0
0
0
0
0
0
0
0
0
0
0
0
0
0
0
0
0
0
0
0
0
0
0
0
0
0
0
0
0
0
0
0
0
0
0
0
0
0
0
0
0
0
0
0
0
0
0
0
0
0
0
0
0
0
0
0
0
0
0
0
0
0
0
0
0
0
0
0
0
0
0
0
0
0
0
0
0
0
0
0
0
0
0
0
0
0
0
0
0
0
0
0
0
0
0
0
0
0
0
0
0
0
0
0
0
0
0
0
0
0
0
0
0
0
0
0
0
0
0
0
0
0
0
0
0
0
0
0
0
0
0
0
0
0
0
0
0
0
0
0
0
0
0
0
0
0
0
0
0
0
0
0
0
0
0
0
0
0
0
0
0
0
0
0
0
0
0
0
0
0
0
0
0
0
0
0
0
0
0
0
0
0
0
0
0

SCALARS 3DELEM_Specific_Energy float 1
LOOKUP_TABLE default
0
0
0
0
0
0
0
0
0
0
0
0
0
0
0
0
0
0
0
0
0
0
0
0
0
0
0
0
0
0
0
0
0
0
0
0
0
0
0
0
0
0
0
0
0
0
0
0
0
0
0
0
0
0
0
0
0
0
0
0
0
0
0
0
0
0
0
0
0
0
0
0
0
0
0
0
0
0
0
0
0
0
0
0
0
0
0
0
0
0
0
0
0
0
0
0
0
0
0
0
0
0
0
0
0
0
0
0
0
0
0
0
0
0
0
0
0
0
0
0
0
0
0
0
0
0
0
0
0
0
0
0
0
0
0
0
0
0
0
0
0
0
0
0
0
0
0
0
0
0
0
0
0
0
0
0
0
0
0
0
0
0
0
0
0
0
0
0
0
0
0
0
0
0
0
0
0
0
0
0
0
0
0
0
0
0
0
0
0
0
0
0
0
0
0
0
0
0
0
0
0
0
0
0
0
0
0
0
0
0
0
0
0
0
0
0
0
0
0
0
0
0
0
0
0
0
0
0
0
0
0
0
0
0
0
0
0
0
0
0
0
0
0
0
0
0
0
0
0
0
0
0
0
0
0
0
0
0

SCALARS 3DELEM_Von_Mises float 1
LOOKUP_TABLE default
0
0
0
0
0
0
0
0
0
0
0
0
0
0
0
0
0
0
0
0
0
0
0
0
0
0
0
0
0
0
0
0
0
0
0
0
0
0
0
0
0
0
0
0
0
0
0
0
0
0
0
0
0
0
0
0
0
0
0
0
0
0
0
0
0
0
0
0
0
0
0
0
0
0
0
0
0
0
0
0
0
0
0
0
0
0
0
0
0
0
0
0
0
0
0
0
0
0
0
0
0
0
0
0
0
0
0
0
0
0
0
0
0
0
0
0
0
0
0
0
0
0
0
0
0
0
0
0
0
0
0
0
0
0
0
0
0
0
0
0
0
0
0
0
0
0
0
0
0
0
0
0
0
0
0
0
0
0
0
0
0
0
0
0
0
0
0
0
0
0
0
0
0
0
0
0
0
0
0
0
0
0
0
0
0
0
0
0
0
0
0
0
0
0
0
0
0
0
0
0
0
0
0
0
0
0
0
0
0
0
0
0
0
0
0
0
0
0
0
0
0
0
0
0
0
0
0
0
0
0
0
0
0
0
0
0
0
0
0
0
0
0
0
0
0
0
0
0
0
0
0
0
0
0
0
0
0
0

SCALARS 3DELEM_Hourglass_Energy float 1
LOOKUP_TABLE default
0
0
0
0
0
0
0
0
0
0
0
0
0
0
0
0
0
0
0
0
0
0
0
0
0
0
0
0
0
0
0
0
0
0
0
0
0
0
0
0
0
0
0
0
0
0
0
0
0
0
0
0
0
0
0
0
0
0
0
0
0
0
0
0
0
0
0
0
0
0
0
0
0
0
0
0
0
0
0
0
0
0
0
0
0
0
0
0
0
0
0
0
0
0
0
0
0
0
0
0
0
0
0
0
0
0
0
0
0
0
0
0
0
0
0
0
0
0
0
0
0
0
0
0
0
0
0
0
0
0
0
0
0
0
0
0
0
0
0
0
0
0
0
0
0
0
0
0
0
0
0
0
0
0
0
0
0
0
0
0
0
0
0
0
0
0
0
0
0
0
0
0
0
0
0
0
0
0
0
0
0
0
0
0
0
0
0
0
0
0
0
0
0
0
0
0
0
0
0
0
0
0
0
0
0
0
0
0
0
0
0
0
0
0
0
0
0
0
0
0
0
0
0
0
0
0
0
0
0
0
0
0
0
0
0
0
0
0
0
0
0
0
0
0
0
0
0
0
0
0
0
0
0
0
0
0
0
0

