# vtk DataFile Version 3.0
vtk output
ASCII
DATASET UNSTRUCTURED_GRID
FIELD FieldData 2
TIME 1 1 double
1.00006
CYCLE 1 1 int
0
POINTS 8 float
0 0 0
0 1 0
0 1 1
0 0 1
2.00006 0 0
2.00006 1 0
2.00006 1 1
2.00006 0 1

CELLS 1 9
8 0  1  2  3  4  5  6  7

CELL_TYPES 1
12

POINT_DATA 8
SCALARS NODE_ID int 1
LOOKUP_TABLE default
14
15
16
17
18
19
20
21

SCALARS Time_Step float 1
LOOKUP_TABLE default
7.64804e-05
7.64804e-05
7.64804e-05
7.64804e-05
7.64804e-05
7.64804e-05
7.64804e-05
7.64804e-05

VECTORS Velocity float
0 0 0
0 0 0
0 0 0
0 0 0
1 0 0
1 0 0
1 0 0
1 0 0

VECTORS Displacement float
0 0 0
0 0 0
0 0 0
0 0 0
1.00006 0 0
1.00006 0 0
1.00006 0 0
1.00006 0 0

VECTORS Acceleration float
0 0 0
0 0 0
0 0 0
0 0 0
1.89817e-08 0 0
1.89817e-08 0 0
1.89817e-08 0 0
1.89817e-08 0 0

VECTORS Contact_Forces float
0 0 0
0 0 0
0 0 0
0 0 0
0 0 0
0 0 0
0 0 0
0 0 0

CELL_DATA 1
SCALARS ELEMENT_ID int 1
LOOKUP_TABLE default
2

SCALARS PART_ID int 1
LOOKUP_TABLE default
3

SCALARS EROSION_STATUS int 1
LOOKUP_TABLE default
1

SCALARS 3DELEM_Plastic_Strain float 1
LOOKUP_TABLE default
0

SCALARS 3DELEM_Specific_Energy float 1
LOOKUP_TABLE default
2.68265e+07

SCALARS 3DELEM_Pressure float 1
LOOKUP_TABLE default
-23104.6

SCALARS 3DELEM_Von_Mises float 1
LOOKUP_TABLE default
69313.8

SCALARS 3DELEM_Stress_X_ float 1
LOOKUP_TABLE default
69313.8

SCALARS 3DELEM_Stress_Y_ float 1
LOOKUP_TABLE default
0

SCALARS 3DELEM_Stress_Z_ float 1
LOOKUP_TABLE default
0

SCALARS 3DELEM_Stress_XY float 1
LOOKUP_TABLE default
0

SCALARS 3DELEM_Stress_YZ float 1
LOOKUP_TABLE default
0

SCALARS 3DELEM_Stress_ZX float 1
LOOKUP_TABLE default
0

TENSORS 3DELEM_Stress float
69313.8 0 0
0 0 0
0 0 0

TENSORS 3DELEM_Strain float
0.693138 0 0
0 0 0
0 0 0

