# vtk DataFile Version 3.0
vtk output
ASCII
DATASET UNSTRUCTURED_GRID
FIELD FieldData 2
TIME 1 1 double
0
CYCLE 1 1 int
0
POINTS 8 float
0 0 0
0 0 -1
0 1 0
0 1 -1
1 0 0
1 0 -1
1 1 0
1 1 -1

CELLS 1 9
8 0  1  3  2  4  5  7  6

CELL_TYPES 1
12

POINT_DATA 8
SCALARS NODE_ID int 1
LOOKUP_TABLE default
1
2
3
4
5
6
7
8

CELL_DATA 1
SCALARS ELEMENT_ID int 1
LOOKUP_TABLE default
1

SCALARS PART_ID int 1
LOOKUP_TABLE default
1

SCALARS EROSION_STATUS int 1
LOOKUP_TABLE default
1

SCALARS 3DELEM_User_Var_1 float 1
LOOKUP_TABLE default
0

SCALARS 3DELEM_User_Var_2 float 1
LOOKUP_TABLE default
0

SCALARS 3DELEM_User_Var_3 float 1
LOOKUP_TABLE default
0

SCALARS 3DELEM_User_Var_4 float 1
LOOKUP_TABLE default
0

SCALARS 3DELEM_Strain_Rate float 1
LOOKUP_TABLE default
0

