# vtk DataFile Version 3.0
vtk output
ASCII
DATASET UNSTRUCTURED_GRID
FIELD FieldData 2
TIME 1 1 double
0.00200036
CYCLE 1 1 int
0
POINTS 344 float
10 9 0
10 6 0
10 3 0
10 17 0
10 20 0
10 14 0
9.99996 19 0.0509698
10 16 0.0074659
9.99923 12.9993 0.13173
9.99993 10 0.0197569
9.99986 7 0.0280637
9.99985 4 0.0304357
9.99027 20 1.05092
9.99027 18 1.05092
0 18 1
0 20 1
10.0097 20 -0.948983
10.0097 18 -0.948983
0 18 -1
0 20 -1
9.99713 17 1.00746
9.99713 15 1.00746
0 15 1
0 17 1
4.99989 14.9999 0.998375
4.99989 17.0001 0.998375
5.0001 15.0001 -1.00162
0 15 -1
0 17 -1
5.0001 16.9999 -1.00162
10.0029 17 -0.99253
10.0029 15 -0.99253
9.98445 13.9983 1.13268
9.98433 11.9983 1.13055
0 12 1
0 14 1
7.4796 11.9998 1.09381
2.48735 14.0016 1.02481
7.51927 11.9992 -0.905932
0 12 -1
0 14 -1
2.51266 13.9981 -0.975021
10.0141 14.0004 -0.867095
10.014 12.0004 -0.869224
0 9 -1
1.99799 8.9998 -1.00328
3.99896 9.00033 -1.00743
6.00251 9.00055 -1.00654
8.0066 9.00041 -0.997059
10.0084 9 -0.980207
0 11 -1
1.99799 11.0002 -1.00328
3.99896 10.9997 -1.00743
6.00251 10.9994 -1.00654
8.0066 10.9996 -0.997059
10.0084 11 -0.980207
0 9 1
2.00199 9.0002 0.996725
2.00199 10.9998 0.996725
0 11 1
4.001 8.99967 0.99257
4.001 11.0003 0.99257
5.99748 8.99944 0.993449
5.99748 11.0006 0.993449
7.99338 8.99959 1.00289
7.99338 11.0004 1.00289
9.99145 9 1.01972
9.99145 11 1.01972
0 6 -1
0.998478 5.99966 -1.00125
1.99771 5.99988 -1.00388
2.9978 6.00016 -1.00699
3.99893 6.00043 -1.00947
5.001 6.00062 -1.01016
6.00367 6.0007 -1.00814
7.00646 6.00068 -1.00299
8.00892 6.00056 -0.994835
9.01065 6.0003 -0.984099
10.0113 6 -0.971871
0 7 -1
0.998506 7 -1.00139
1.99761 7 -1.00393
2.99772 7 -1.0069
3.99887 7 -1.00926
5.00097 7 -1.00986
6.00365 7 -1.00781
7.00646 7 -1.00266
8.00897 7 -0.994563
9.01073 7 -0.983931
10.0113 7 -0.971871
0 8 -1
0.998478 8.00034 -1.00125
1.99771 8.00012 -1.00388
2.9978 7.99984 -1.00699
3.99893 7.99957 -1.00947
5.001 7.99938 -1.01016
6.00367 7.9993 -1.00814
7.00646 7.99932 -1.00299
8.00892 7.99944 -0.994835
9.01065 7.9997 -0.984099
10.0113 8 -0.971871
0 6 1
1.00153 6.00034 0.998733
1.0015 7 0.998601
0 7 1
2.00229 6.00012 0.99611
2.00239 7 0.996063
3.0022 5.99985 0.993014
3.00228 7 0.993098
4.00107 5.99957 0.990526
4.00113 7 0.99073
4.999 5.99938 0.989838
4.99903 7 0.990132
5.99634 5.9993 0.991845
5.99635 7 0.992188
6.99353 5.99932 0.996954
6.99353 7 0.997287
7.99103 5.99945 1.00507
7.99098 7 1.00534
8.98921 5.99971 1.0158
8.98912 7 1.01595
9.98841 6 1.028
9.98841 7 1.028
1.00153 7.99966 0.998733
0 8 1
2.00229 7.99988 0.99611
3.0022 8.00015 0.993014
4.00107 8.00043 0.990526
4.999 8.00062 0.989838
5.99634 8.0007 0.991845
6.99353 8.00068 0.996954
7.99103 8.00055 1.00507
8.98921 8.00029 1.0158
9.98841 8 1.028
0 3 -1
0.499128 2.9997 -1.00046
0.998506 2.99973 -1.00137
1.49802 2.99979 -1.00259
1.99771 2.99986 -1.00401
2.4976 2.99996 -1.0056
2.99771 3.00009 -1.00724
3.49808 3.00023 -1.00874
3.99875 3.00038 -1.00998
4.4997 3.00054 -1.0108
5.0009 3.00067 -1.01099
5.50229 3.00076 -1.0104
6.00382 3.00081 -1.009
6.50539 3.00081 -1.00667
7.00693 3.00077 -1.00341
7.50837 3.00068 -0.99931
8.00964 3.00059 -0.994432
8.51068 3.00047 -0.988843
9.01144 3.00032 -0.982709
9.51192 3.00015 -0.976236
10.0121 3 -0.969489
0 3.5 -1
0.499189 3.49989 -1.00054
0.998494 3.49986 -1.00146
1.498 3.49989 -1.00267
1.99767 3.49992 -1.00406
2.49754 3.49997 -1.00561
2.99763 3.50004 -1.00721
3.498 3.50011 -1.00865
3.99866 3.50019 -1.00984
4.49962 3.50027 -1.0106
5.00083 3.50034 -1.01075
5.50226 3.50038 -1.01012
6.00381 3.50041 -1.0087
6.5054 3.50041 -1.00637
7.00697 3.50039 -1.00312
7.50842 3.50034 -0.999054
8.0097 3.50029 -0.994216
8.51074 3.50023 -0.988669
9.01152 3.50016 -0.982593
9.51199 3.50007 -0.976178
10.0121 3.5 -0.969489
0 4 -1
0.499178 4 -1.00056
0.998511 4 -1.00149
1.498 4 -1.00269
1.99767 4 -1.00407
2.49753 4 -1.00561
2.99762 4 -1.0072
3.49798 4 -1.00863
3.99865 4 -1.00979
4.4996 4 -1.01054
5.00082 4 -1.01067
5.50225 4 -1.01003
6.00381 4 -1.00861
6.50541 4 -1.00627
7.00697 4 -1.00303
7.50843 4 -0.998968
8.00971 4 -0.994145
8.51075 4 -0.988616
9.01153 4 -0.982551
9.51199 4 -0.976159
10.0121 4 -0.969489
0 4.5 -1
0.499189 4.50011 -1.00054
0.998494 4.50014 -1.00146
1.498 4.50011 -1.00267
1.99767 4.50008 -1.00406
2.49754 4.50003 -1.00561
2.99763 4.49996 -1.00721
3.498 4.49989 -1.00865
3.99866 4.49981 -1.00984
4.49962 4.49973 -1.0106
5.00083 4.49966 -1.01075
5.50226 4.49962 -1.01012
6.00381 4.49959 -1.0087
6.5054 4.49959 -1.00637
7.00697 4.49961 -1.00312
7.50842 4.49966 -0.999054
8.0097 4.49971 -0.994216
8.51074 4.49977 -0.988669
9.01152 4.49984 -0.982593
9.51199 4.49993 -0.976178
10.0121 4.5 -0.969489
0 5 -1
0.499128 5.0003 -1.00046
0.998506 5.00027 -1.00137
1.49802 5.00021 -1.00259
1.99771 5.00014 -1.00401
2.4976 5.00004 -1.0056
2.99771 4.99991 -1.00724
3.49808 4.99977 -1.00874
3.99875 4.99962 -1.00998
4.4997 4.99946 -1.0108
5.0009 4.99933 -1.01099
5.50229 4.99924 -1.0104
6.00382 4.99919 -1.009
6.50539 4.99919 -1.00667
7.00693 4.99923 -1.00341
7.50837 4.99932 -0.99931
8.00964 4.99941 -0.994432
8.51068 4.99953 -0.988843
9.01144 4.99968 -0.982709
9.51192 4.99985 -0.976236
10.0121 5 -0.969489
0 3 1
0.500892 3.00031 0.999521
0.500829 3.50012 0.999437
0 3.5 1
1.00153 3.00029 0.998626
1.00154 3.50015 0.998532
1.50201 3.00022 0.997415
1.50204 3.50011 0.997338
2.00232 3.00013 0.995959
2.00237 3.50007 0.995908
2.50243 3.00003 0.994389
2.50249 3.50002 0.994373
3.0023 2.9999 0.99279
3.00238 3.49995 0.992825
3.50191 2.99976 0.991262
3.50199 3.49988 0.991349
4.00123 2.99961 0.989997
4.00131 3.49981 0.99014
4.50028 2.99947 0.989223
4.50035 3.49974 0.989421
4.99908 2.99934 0.989024
4.99914 3.49967 0.989269
5.49769 2.99925 0.98957
5.49772 3.49962 0.98985
5.99617 2.99921 0.990992
5.99618 3.4996 0.991291
6.4946 2.9992 0.993307
6.49459 3.49959 0.99361
6.99306 2.99923 0.996498
6.99303 3.49961 0.996779
7.49162 2.99932 1.00059
7.49157 3.49966 1.00084
7.99032 2.99942 1.00548
7.99026 3.49971 1.0057
8.48923 2.99953 1.01101
8.48917 3.49977 1.01118
8.98841 2.99968 1.01711
8.98833 3.49984 1.01723
9.48787 2.99985 1.02363
9.48779 3.49993 1.02369
9.98761 3 1.03036
9.98761 3.5 1.03036
0.500841 4 0.999421
0 4 1
1.00153 4 0.998505
1.50205 4 0.997314
2.00237 4 0.995889
2.5025 4 0.994368
3.00239 4 0.992837
3.502 4 0.991378
4.00133 4 0.990184
4.50036 4 0.989486
4.99915 4 0.989348
5.49773 4 0.989941
5.99619 4 0.991392
6.49459 4 0.993707
6.99302 4 0.996872
7.49156 4 1.00092
7.99025 4 1.00577
8.48915 4 1.01123
8.98832 4 1.01727
9.48779 4 1.02371
9.98761 4 1.03036
0.500829 4.49988 0.999437
0 4.5 1
1.00154 4.49985 0.998532
1.50204 4.49989 0.997338
2.00237 4.49993 0.995908
2.50249 4.49998 0.994373
3.00238 4.50004 0.992825
3.50199 4.50012 0.991349
4.00131 4.50019 0.99014
4.50035 4.50026 0.989421
4.99914 4.50033 0.989269
5.49772 4.50038 0.98985
5.99618 4.5004 0.991291
6.49459 4.50041 0.99361
6.99303 4.50039 0.996779
7.49157 4.50034 1.00084
7.99026 4.50029 1.0057
8.48917 4.50024 1.01118
8.98833 4.50016 1.01723
9.48779 4.50007 1.02369
9.98761 4.5 1.03036
0.500892 4.99969 0.999521
0 5 1
1.00153 4.99971 0.998626
1.50201 4.99978 0.997415
2.00232 4.99987 0.995959
2.50243 4.99997 0.994389
3.0023 5.0001 0.99279
3.50191 5.00024 0.991262
4.00123 5.00039 0.989997
4.50028 5.00053 0.989223
4.99908 5.00066 0.989024
5.49769 5.00075 0.98957
5.99617 5.00079 0.990992
6.4946 5.0008 0.993307
6.99306 5.00077 0.996498
7.49162 5.00068 1.00059
7.99032 5.00058 1.00548
8.48923 5.00047 1.01101
8.98841 5.00032 1.01711
9.48787 5.00015 1.02363
9.98761 5 1.03036

CELLS 142 1086
2 6 12
2 6 13
2 6 16
2 6 17
2 7 20
2 7 21
2 7 30
2 7 31
2 8 32
2 8 33
2 8 42
2 8 43
2 9 49
2 9 55
2 9 66
2 9 67
2 10 78
2 10 89
2 10 100
2 10 121
2 10 122
2 10 133
2 11 154
2 11 175
2 11 196
2 11 217
2 11 238
2 11 279
2 11 280
2 11 301
2 11 322
2 11 343
8 12  13  14  15  16  17  18  19
8 24  22  23  25  26  27  28  29
8 25  20  21  24  29  30  31  26
8 36  34  35  37  38  39  40  41
8 37  32  33  36  41  42  43  38
8 44  45  51  50  56  57  58  59
8 45  46  52  51  57  60  61  58
8 46  47  53  52  60  62  63  61
8 47  48  54  53  62  64  65  63
8 48  49  55  54  64  66  67  65
8 68  69  80  79  101  102  103  104
8 79  80  91  90  104  103  123  124
8 69  70  81  80  102  105  106  103
8 70  71  82  81  105  107  108  106
8 71  72  83  82  107  109  110  108
8 72  73  84  83  109  111  112  110
8 73  74  85  84  111  113  114  112
8 74  75  86  85  113  115  116  114
8 75  76  87  86  115  117  118  116
8 76  77  88  87  117  119  120  118
8 77  78  89  88  119  121  122  120
8 80  81  92  91  103  106  125  123
8 81  82  93  92  106  108  126  125
8 82  83  94  93  108  110  127  126
8 83  84  95  94  110  112  128  127
8 84  85  96  95  112  114  129  128
8 85  86  97  96  114  116  130  129
8 86  87  98  97  116  118  131  130
8 87  88  99  98  118  120  132  131
8 88  89  100  99  120  122  133  132
8 134  135  156  155  239  240  241  242
8 135  136  157  156  240  243  244  241
8 136  137  158  157  243  245  246  244
8 137  138  159  158  245  247  248  246
8 138  139  160  159  247  249  250  248
8 139  140  161  160  249  251  252  250
8 140  141  162  161  251  253  254  252
8 155  156  177  176  242  241  281  282
8 156  157  178  177  241  244  283  281
8 157  158  179  178  244  246  284  283
8 158  159  180  179  246  248  285  284
8 159  160  181  180  248  250  286  285
8 160  161  182  181  250  252  287  286
8 176  177  198  197  282  281  302  303
8 177  178  199  198  281  283  304  302
8 178  179  200  199  283  284  305  304
8 179  180  201  200  284  285  306  305
8 180  181  202  201  285  286  307  306
8 181  182  203  202  286  287  308  307
8 197  198  219  218  303  302  323  324
8 198  199  220  219  302  304  325  323
8 199  200  221  220  304  305  326  325
8 200  201  222  221  305  306  327  326
8 201  202  223  222  306  307  328  327
8 202  203  224  223  307  308  329  328
8 147  148  169  168  265  267  268  266
8 148  149  170  169  267  269  270  268
8 149  150  171  170  269  271  272  270
8 150  151  172  171  271  273  274  272
8 151  152  173  172  273  275  276  274
8 152  153  174  173  275  277  278  276
8 153  154  175  174  277  279  280  278
8 168  169  190  189  266  268  295  294
8 169  170  191  190  268  270  296  295
8 170  171  192  191  270  272  297  296
8 171  172  193  192  272  274  298  297
8 172  173  194  193  274  276  299  298
8 173  174  195  194  276  278  300  299
8 174  175  196  195  278  280  301  300
8 189  190  211  210  294  295  316  315
8 190  191  212  211  295  296  317  316
8 191  192  213  212  296  297  318  317
8 192  193  214  213  297  298  319  318
8 193  194  215  214  298  299  320  319
8 194  195  216  215  299  300  321  320
8 195  196  217  216  300  301  322  321
8 210  211  232  231  315  316  337  336
8 211  212  233  232  316  317  338  337
8 212  213  234  233  317  318  339  338
8 213  214  235  234  318  319  340  339
8 214  215  236  235  319  320  341  340
8 215  216  237  236  320  321  342  341
8 216  217  238  237  321  322  343  342
8 141  142  163  162  253  255  256  254
8 142  143  164  163  255  257  258  256
8 143  144  165  164  257  259  260  258
8 144  145  166  165  259  261  262  260
8 145  146  167  166  261  263  264  262
8 146  147  168  167  263  265  266  264
8 161  162  183  182  252  254  288  287
8 162  163  184  183  254  256  289  288
8 163  164  185  184  256  258  290  289
8 164  165  186  185  258  260  291  290
8 165  166  187  186  260  262  292  291
8 166  167  188  187  262  264  293  292
8 167  168  189  188  264  266  294  293
8 182  183  204  203  287  288  309  308
8 183  184  205  204  288  289  310  309
8 184  185  206  205  289  290  311  310
8 185  186  207  206  290  291  312  311
8 186  187  208  207  291  292  313  312
8 187  188  209  208  292  293  314  313
8 188  189  210  209  293  294  315  314
8 203  204  225  224  308  309  330  329
8 204  205  226  225  309  310  331  330
8 205  206  227  226  310  311  332  331
8 206  207  228  227  311  312  333  332
8 207  208  229  228  312  313  334  333
8 208  209  230  229  313  314  335  334
8 209  210  231  230  314  315  336  335

CELL_TYPES 142
3
3
3
3
3
3
3
3
3
3
3
3
3
3
3
3
3
3
3
3
3
3
3
3
3
3
3
3
3
3
3
3
12
12
12
12
12
12
12
12
12
12
12
12
12
12
12
12
12
12
12
12
12
12
12
12
12
12
12
12
12
12
12
12
12
12
12
12
12
12
12
12
12
12
12
12
12
12
12
12
12
12
12
12
12
12
12
12
12
12
12
12
12
12
12
12
12
12
12
12
12
12
12
12
12
12
12
12
12
12
12
12
12
12
12
12
12
12
12
12
12
12
12
12
12
12
12
12
12
12
12
12
12
12
12
12
12
12
12
12
12
12

POINT_DATA 344
SCALARS NODE_ID int 1
LOOKUP_TABLE default
6
23
66
606
660
1115
1457
1458
1459
1460
1461
1462
1795
1796
1797
1798
1799
1800
1801
1802
1803
1804
1805
1806
1807
1808
1809
1810
1811
1812
1813
1814
1815
1816
1817
1818
1819
1820
1821
1822
1823
1824
1825
1826
1827
1828
1829
1830
1831
1832
1833
1834
1835
1836
1837
1838
1839
1840
1841
1842
1843
1844
1845
1846
1847
1848
1849
1850
1851
1852
1853
1854
1855
1856
1857
1858
1859
1860
1861
1862
1863
1864
1865
1866
1867
1868
1869
1870
1871
1872
1873
1874
1875
1876
1877
1878
1879
1880
1881
1882
1883
1884
1885
1886
1887
1888
1889
1890
1891
1892
1893
1894
1895
1896
1897
1898
1899
1900
1901
1902
1903
1904
1905
1906
1907
1908
1909
1910
1911
1912
1913
1914
1915
1916
1917
1918
1919
1920
1921
1922
1923
1924
1925
1926
1927
1928
1929
1930
1931
1932
1933
1934
1935
1936
1937
1938
1939
1940
1941
1942
1943
1944
1945
1946
1947
1948
1949
1950
1951
1952
1953
1954
1955
1956
1957
1958
1959
1960
1961
1962
1963
1964
1965
1966
1967
1968
1969
1970
1971
1972
1973
1974
1975
1976
1977
1978
1979
1980
1981
1982
1983
1984
1985
1986
1987
1988
1989
1990
1991
1992
1993
1994
1995
1996
1997
1998
1999
2000
2001
2002
2003
2004
2005
2006
2007
2008
2009
2010
2011
2012
2013
2014
2015
2016
2017
2018
2019
2020
2021
2022
2023
2024
2025
2026
2027
2028
2029
2030
2031
2032
2033
2034
2035
2036
2037
2038
2039
2040
2041
2042
2043
2044
2045
2046
2047
2048
2049
2050
2051
2052
2053
2054
2055
2056
2057
2058
2059
2060
2061
2062
2063
2064
2065
2066
2067
2068
2069
2070
2071
2072
2073
2074
2075
2076
2077
2078
2079
2080
2081
2082
2083
2084
2085
2086
2087
2088
2089
2090
2091
2092
2093
2094
2095
2096
2097
2098
2099
2100
2101
2102
2103
2104
2105
2106
2107
2108
2109
2110
2111
2112
2113
2114
2115
2116
2117
2118
2119
2120
2121
2122
2123
2124
2125
2126

VECTORS Velocity float
0 0 0
0 0 0
0 0 0
0 0 0
0 0 0
0 0 0
1.22965 4.67711e-13 -482.401
-1.2701 0.000311454 -200.141
0.89993 1.30331 -74.3696
-2.12605 3.27892e-12 416.021
-2.13007 1.49832e-11 495.426
-5.25472 -2.22669e-10 532.37
95.3064 3.87405e-13 -481.479
95.3064 3.87405e-13 -481.479
0 0 0
0 0 0
-92.8471 5.48018e-13 -483.323
-92.8471 5.48018e-13 -483.323
0 0 0
0 0 0
54.734 0.00030341 -199.977
54.7341 0.00030341 -199.977
0 0 0
0 0 0
8.17667 2.68336 1.50151
8.1766 -2.68316 1.50152
-9.99115 -2.68335 1.30307
0 0 0
0 0 0
-9.99121 2.68352 1.30306
-57.2743 0.000319497 -200.306
-57.2742 0.000319497 -200.306
10.8926 12.3197 -85.2158
10.8634 12.296 -63.2032
0 0 0
0 0 0
10.1072 15.5822 -38.2011
3.16152 9.32733 -25.0729
-9.01814 -13.759 -38.4533
0 0 0
0 0 0
-3.0133 -8.90446 -25.1419
-9.06358 -9.68936 -85.5359
-9.09271 -9.71308 -63.5234
0 0 0
-15.098 -2.60054 -15.228
-7.07462 3.57799 -57.6288
52.9648 9.90198 -37.453
109.863 8.90246 119.114
120.213 4.43582e-12 417.04
0 0 0
-15.098 2.60054 -15.228
-7.07462 -3.57799 -57.6288
52.9648 -9.90198 -37.453
109.863 -8.90246 119.114
120.213 4.43582e-12 417.04
0 0 0
15.1321 2.73639 -15.4933
15.1321 -2.73639 -15.4933
0 0 0
8.32945 -3.60723 -57.9257
8.32945 3.60723 -57.9257
-50.7432 -10.3326 -37.3607
-50.7432 10.3326 -37.3607
-108.879 -8.42877 117.941
-108.879 8.42877 117.941
-124.465 2.12201e-12 415.001
-124.465 2.12201e-12 415.001
0 0 0
-7.74813 -0.464164 1.73655
-11.8294 -1.56333 -6.60204
-15.3574 2.53687 -27.703
-6.3115 3.30655 -51.9116
22.4367 8.38944 -57.2241
62.3573 10.2944 -20.7271
102.807 12.0569 63.3074
132.021 7.35345 187.344
152.868 5.56197 340.839
158.46 7.52641e-11 497.234
0 0 0
-5.15153 6.56049e-11 -1.19292
-13.3631 2.75094e-10 -10.2407
-17.309 -1.18651e-10 -27.1482
-7.47256 2.60928e-10 -48.784
22.5417 1.58525e-10 -49.4701
61.445 -2.21445e-10 -12.783
101.192 -2.98012e-11 66.8942
135.221 2.02124e-10 186.585
153.222 3.74865e-11 340.607
158.46 7.52641e-11 497.234
0 0 0
-7.74813 0.464164 1.73655
-11.8294 1.56333 -6.60204
-15.3574 -2.53687 -27.703
-6.3115 -3.30655 -51.9116
22.4367 -8.38944 -57.2241
62.3573 -10.2944 -20.7271
102.807 -12.0569 63.3074
132.021 -7.35345 187.344
152.868 -5.56197 340.839
158.46 7.52641e-11 497.234
0 0 0
7.85403 0.183611 1.94342
4.78336 -2.59699e-13 -0.723075
0 0 0
12.1717 2.20001 -5.45082
12.7806 3.13111e-11 -9.46372
14.8864 -1.55312 -27.2204
17.8113 -2.13268e-10 -26.0841
5.9952 -3.27473 -52.9353
9.2677 3.38714e-10 -49.8138
-21.0359 -9.38682 -58.3882
-20.7479 2.50319e-10 -51.0171
-59.5997 -11.1212 -21.4154
-60.0912 -2.83389e-11 -13.3871
-99.819 -11.7108 61.6986
-100.441 -1.20932e-10 65.1353
-130.584 -6.24946 184.695
-134.491 2.29765e-10 184.238
-153.957 -4.60313 338.402
-153.649 1.39248e-10 338.323
-162.72 -4.52977e-11 493.618
-162.72 -4.52977e-11 493.618
7.85403 -0.183611 1.94342
0 0 0
12.1717 -2.20001 -5.45082
14.8864 1.55312 -27.2204
5.9952 3.27473 -52.9353
-21.0359 9.38682 -58.3882
-59.5997 11.1212 -21.4154
-99.819 11.7108 61.6986
-130.584 6.24946 184.695
-153.957 4.60313 338.402
-162.72 -4.52977e-11 493.618
0 0 0
-4.36834 -0.170619 -5.62584
-7.68653 -0.944945 -10.8693
-9.72958 -2.36771 -15.8033
-10.6241 -2.82893 -24.1948
-10.1897 -2.09152 -33.346
-7.40492 -0.403549 -40.5178
-2.00838 2.3116 -47.0115
5.56539 4.41054 -50.7317
15.4439 4.68261 -46.6538
28.5824 5.72013 -39.2606
42.2969 8.31252 -28.2282
58.3027 10.4787 -6.21441
76.0035 12.3711 23.5493
95.8234 13.8479 64.8932
113.971 12.7938 118.166
132.463 9.03637 190.866
147.141 4.91732 264.853
158.369 1.93427 357.267
164.847 0.933867 440.899
162.101 -2.69527e-10 534.386
0 0 0
-3.73514 0.338459 -6.04343
-6.36558 -0.387596 -11.466
-8.71275 -1.33497 -16.479
-10.3789 -1.95489 -24.9453
-10.8586 -1.62487 -33.8288
-8.78461 -0.567453 -40.3833
-3.715 1.04163 -46.6235
4.80252 2.07908 -49.8274
15.1362 2.13709 -45.263
27.1384 2.64022 -37.4441
40.4052 4.27856 -25.1362
56.8782 5.63276 -2.49353
74.8315 6.75525 28.0596
95.8355 7.70138 70.2593
116.074 7.06471 122.865
135.531 4.72851 195.129
149.696 1.94142 267.679
159.22 0.385453 357.888
164.862 0.182917 441.448
162.101 -2.69527e-10 534.386
0 0 0
-3.70297 -5.45436e-11 -6.52457
-6.11028 1.79783e-10 -12.1937
-8.17802 -1.64787e-11 -16.8899
-10.103 -1.00149e-11 -25.2543
-11.1027 -6.42063e-10 -34.0411
-9.25085 -8.01674e-10 -40.5273
-3.77274 -5.57092e-10 -46.4688
4.68342 -2.88475e-13 -49.6328
14.6327 5.6154e-10 -44.7759
26.724 1.00718e-11 -36.2791
40.086 3.5475e-11 -24.1053
56.6177 -3.88319e-10 -0.821542
74.7783 -2.50338e-10 29.9616
95.9162 1.41064e-10 71.3332
116.357 2.52306e-10 124.431
136.319 2.51742e-10 196.123
150.233 -3.46523e-10 267.994
159.276 4.10763e-10 358.822
164.636 1.57401e-10 441.427
162.101 -2.69527e-10 534.386
0 0 0
-3.73514 -0.338459 -6.04343
-6.36558 0.387596 -11.466
-8.71275 1.33497 -16.479
-10.3789 1.95489 -24.9453
-10.8586 1.62487 -33.8288
-8.78461 0.567453 -40.3833
-3.715 -1.04163 -46.6235
4.80252 -2.07908 -49.8274
15.1362 -2.13709 -45.263
27.1384 -2.64022 -37.4441
40.4052 -4.27856 -25.1362
56.8782 -5.63276 -2.49353
74.8315 -6.75525 28.0596
95.8355 -7.70138 70.2593
116.074 -7.06471 122.865
135.531 -4.72851 195.129
149.696 -1.94142 267.679
159.22 -0.385453 357.888
164.862 -0.182917 441.448
162.101 -2.69527e-10 534.386
0 0 0
-4.36834 0.170619 -5.62584
-7.68653 0.944945 -10.8693
-9.72958 2.36771 -15.8033
-10.6241 2.82893 -24.1948
-10.1897 2.09152 -33.346
-7.40492 0.403549 -40.5178
-2.00838 -2.3116 -47.0115
5.56539 -4.41054 -50.7317
15.4439 -4.68261 -46.6538
28.5824 -5.72013 -39.2606
42.2969 -8.31252 -28.2282
58.3027 -10.4787 -6.21441
76.0035 -12.3711 23.5493
95.8234 -13.8479 64.8932
113.971 -12.7938 118.166
132.463 -9.03637 190.866
147.141 -4.91732 264.853
158.369 -1.93427 357.267
164.847 -0.933867 440.899
162.101 -2.69527e-10 534.386
0 0 0
3.64754 0.525537 -3.23028
3.06606 -0.111197 -2.80282
0 0 0
5.92936 1.16451 -8.8686
4.87597 0.533862 -8.75513
7.49015 2.12173 -16.9118
6.70817 1.2514 -17.539
8.19382 2.63275 -23.7406
8.05179 1.78876 -24.808
7.76056 2.0357 -32.0579
8.39379 1.49011 -33.0671
5.28796 0.113013 -42.6194
6.6239 0.430947 -43.1187
0.857463 -2.26763 -49.1455
2.45573 -1.00525 -48.3053
-5.76162 -4.08228 -51.2227
-5.04044 -1.94282 -49.6499
-13.9631 -4.4285 -49.4965
-13.9133 -2.04891 -47.8573
-24.9755 -5.07239 -41.342
-24.3647 -2.3362 -39.2759
-37.2104 -6.46039 -25.8644
-36.0148 -3.29609 -23.4675
-52.5908 -8.45351 -6.0543
-51.0356 -4.38414 -2.37155
-69.93 -11.0043 21.3336
-67.967 -5.76837 26.1339
-90.1816 -13.3584 65.4813
-88.9755 -7.41727 70.7339
-110.044 -13.7393 117.125
-110.97 -7.68891 122.671
-130.422 -11.1565 187.397
-133.009 -6.01329 191.007
-148.249 -6.86857 263.382
-150.926 -3.18777 265.281
-162.759 -3.43533 354.275
-164.175 -1.272 355.9
-172.655 -1.85949 434.41
-173.273 -0.582565 434.456
-172.611 -1.75811e-10 530.354
-172.611 -1.75811e-10 530.354
3.11089 1.20014e-10 -2.54856
0 0 0
4.55609 9.69698e-11 -8.67919
6.18992 1.02518e-10 -18.0835
7.823 -2.29553e-10 -25.5714
8.66237 -4.21113e-10 -33.7345
7.08343 -2.29794e-10 -43.3509
2.62058 -1.04916e-10 -48.12
-4.85531 -2.50491e-10 -48.8589
-13.5278 1.89169e-10 -46.9529
-24.0889 2.01973e-10 -38.7205
-35.8706 4.31575e-10 -22.3073
-50.8746 -5.43126e-10 -1.30403
-67.6151 -3.35932e-10 27.3976
-88.6274 4.15e-10 72.9335
-110.999 2.71113e-10 124.001
-133.668 3.98855e-10 192.144
-151.656 -1.34594e-10 266.218
-164.49 2.29907e-10 355.591
-173.202 2.15629e-12 434.796
-172.611 -1.75811e-10 530.354
3.06606 0.111197 -2.80282
0 0 0
4.87597 -0.533862 -8.75513
6.70817 -1.2514 -17.539
8.05179 -1.78876 -24.808
8.39379 -1.49011 -33.0671
6.6239 -0.430947 -43.1187
2.45573 1.00525 -48.3053
-5.04044 1.94282 -49.6499
-13.9133 2.04891 -47.8573
-24.3647 2.3362 -39.2759
-36.0148 3.29609 -23.4675
-51.0356 4.38414 -2.37155
-67.967 5.76837 26.1339
-88.9755 7.41727 70.7339
-110.97 7.68891 122.671
-133.009 6.01329 191.007
-150.926 3.18777 265.281
-164.175 1.272 355.9
-173.273 0.582565 434.456
-172.611 -1.75811e-10 530.354
3.64754 -0.525537 -3.23028
0 0 0
5.92936 -1.16451 -8.8686
7.49015 -2.12173 -16.9118
8.19382 -2.63275 -23.7406
7.76056 -2.0357 -32.0579
5.28796 -0.113013 -42.6194
0.857463 2.26763 -49.1455
-5.76162 4.08228 -51.2227
-13.9631 4.4285 -49.4965
-24.9755 5.07239 -41.342
-37.2104 6.46039 -25.8644
-52.5908 8.45351 -6.0543
-69.93 11.0043 21.3336
-90.1816 13.3584 65.4813
-110.044 13.7393 117.125
-130.422 11.1565 187.397
-148.249 6.86857 263.382
-162.759 3.43533 354.275
-172.655 1.85949 434.41
-172.611 -1.75811e-10 530.354

CELL_DATA 142
SCALARS ELEMENT_ID int 1
LOOKUP_TABLE default
0
0
0
0
0
0
0
0
0
0
0
0
0
0
0
0
0
0
0
0
0
0
0
0
0
0
0
0
0
0
0
0
829
830
831
832
833
834
835
836
837
838
839
849
840
841
842
843
844
845
846
847
848
850
851
852
853
854
855
856
857
858
859
860
861
862
863
864
865
879
880
881
882
883
884
899
900
901
902
903
904
919
920
921
922
923
924
872
873
874
875
876
877
878
892
893
894
895
896
897
898
912
913
914
915
916
917
918
932
933
934
935
936
937
938
866
867
868
869
870
871
885
886
887
888
889
890
891
905
906
907
908
909
910
911
925
926
927
928
929
930
931

SCALARS PART_ID int 1
LOOKUP_TABLE default
713
713
713
713
714
714
714
714
715
715
715
715
716
716
716
716
717
717
717
717
717
717
718
718
718
718
718
718
718
718
718
718
15
16
16
17
17
18
18
18
18
18
19
19
19
19
19
19
19
19
19
19
19
19
19
19
19
19
19
19
19
19
20
20
20
20
20
20
20
20
20
20
20
20
20
20
20
20
20
20
20
20
20
20
20
20
20
20
20
20
20
20
20
20
20
20
20
20
20
20
20
20
20
20
20
20
20
20
20
20
20
20
20
20
20
20
20
20
20
20
20
20
20
20
20
20
20
20
20
20
20
20
20
20
20
20
20
20
20
20
20
20

SCALARS EROSION_STATUS int 1
LOOKUP_TABLE default
1
1
1
1
1
1
1
1
1
1
1
1
1
1
1
1
1
1
1
1
1
1
1
1
1
1
1
1
1
1
1
1
1
1
1
1
1
1
1
1
1
1
1
1
1
1
1
1
1
1
1
1
1
1
1
1
1
1
1
1
1
1
1
1
1
1
1
1
1
1
1
1
1
1
1
1
1
1
1
1
1
1
1
1
1
1
1
1
1
1
1
1
1
1
1
1
1
1
1
1
1
1
1
1
1
1
1
1
1
1
1
1
1
1
1
1
1
1
1
1
1
1
1
1
1
1
1
1
1
1
1
1
1
1
1
1
1
1
1
1
1
1

SCALARS 1DELEM_Plastic_Strain float 1
LOOKUP_TABLE default
0
0
0
0
0
0
0
0
0
0
0
0
0
0
0
0
0
0
0
0
0
0
0
0
0
0
0
0
0
0
0
0
0
0
0
0
0
0
0
0
0
0
0
0
0
0
0
0
0
0
0
0
0
0
0
0
0
0
0
0
0
0
0
0
0
0
0
0
0
0
0
0
0
0
0
0
0
0
0
0
0
0
0
0
0
0
0
0
0
0
0
0
0
0
0
0
0
0
0
0
0
0
0
0
0
0
0
0
0
0
0
0
0
0
0
0
0
0
0
0
0
0
0
0
0
0
0
0
0
0
0
0
0
0
0
0
0
0
0
0
0
0

SCALARS 1DELEM_Specific_Energy float 1
LOOKUP_TABLE default
0
0
0
0
0
0
0
0
0
0
0
0
0
0
0
0
0
0
0
0
0
0
0
0
0
0
0
0
0
0
0
0
0
0
0
0
0
0
0
0
0
0
0
0
0
0
0
0
0
0
0
0
0
0
0
0
0
0
0
0
0
0
0
0
0
0
0
0
0
0
0
0
0
0
0
0
0
0
0
0
0
0
0
0
0
0
0
0
0
0
0
0
0
0
0
0
0
0
0
0
0
0
0
0
0
0
0
0
0
0
0
0
0
0
0
0
0
0
0
0
0
0
0
0
0
0
0
0
0
0
0
0
0
0
0
0
0
0
0
0
0
0

SCALARS 1DELEM_Von_Mises float 1
LOOKUP_TABLE default
0
0
0
0
0
0
0
0
0
0
0
0
0
0
0
0
0
0
0
0
0
0
0
0
0
0
0
0
0
0
0
0
0
0
0
0
0
0
0
0
0
0
0
0
0
0
0
0
0
0
0
0
0
0
0
0
0
0
0
0
0
0
0
0
0
0
0
0
0
0
0
0
0
0
0
0
0
0
0
0
0
0
0
0
0
0
0
0
0
0
0
0
0
0
0
0
0
0
0
0
0
0
0
0
0
0
0
0
0
0
0
0
0
0
0
0
0
0
0
0
0
0
0
0
0
0
0
0
0
0
0
0
0
0
0
0
0
0
0
0
0
0

SCALARS 3DELEM_Plastic_Strain float 1
LOOKUP_TABLE default
0
0
0
0
0
0
0
0
0
0
0
0
0
0
0
0
0
0
0
0
0
0
0
0
0
0
0
0
0
0
0
0
0
0
0
0
0
0
0
0
0
0
0
0
0
0
0
0
0
0
0
0
0
0
0
0
0
0
0
0
0
0
0
0
0
0
0
0
0
0
0
0
0
0
0
0
0
0
0
0
0
0
0
0
0
0
0
0
0
0
0
0
0
0
0
0
0
0
0
0
0
0
0
0
0
0
0
0
0
0
0
0
0
0
0
0
0
0
0
0
0
0
0
0
0
0
0
0
0
0
0
0
0
0
0
0
0
0
0
0
0
0

SCALARS 3DELEM_Specific_Energy float 1
LOOKUP_TABLE default
0
0
0
0
0
0
0
0
0
0
0
0
0
0
0
0
0
0
0
0
0
0
0
0
0
0
0
0
0
0
0
0
5368.78
1609.03
2150.45
161430
34960.9
8082.04
3447.23
15130.3
19575.6
8336.15
13552.8
13552.8
6064
3549.31
9407.48
22034
33227.6
36216.5
29559.4
18398.5
8188.67
6064
3549.31
9407.48
22034
33227.6
36216.5
29559.4
18398.5
8188.67
16606.1
10697.7
7113.29
4749.81
3505.16
4047.36
6705.28
16591.4
11659.3
7256.03
4455.77
2978.84
3194.75
16591.4
11659.3
7256.03
4455.77
2978.84
3194.75
16606.1
10697.7
7113.29
4749.81
3505.16
4047.36
44470.1
39617.6
32981.2
24698
17612.6
11611
9534.45
45248.3
39773.8
32578.2
24113.4
16574.7
10051.7
7950.02
45248.3
39773.8
32578.2
24113.4
16574.7
10051.7
7950.02
44470.1
39617.6
32981.2
24698
17612.6
11611
9534.45
12228.8
19843
28815.4
36999.9
43346.3
45697.9
5657.33
11151.4
19033.7
28675.8
37497.5
43990.7
46524.1
5657.33
11151.4
19033.7
28675.8
37497.5
43990.7
46524.1
6705.28
12228.8
19843
28815.4
36999.9
43346.3
45697.9

SCALARS 3DELEM_Von_Mises float 1
LOOKUP_TABLE default
0
0
0
0
0
0
0
0
0
0
0
0
0
0
0
0
0
0
0
0
0
0
0
0
0
0
0
0
0
0
0
0
3517.75
5211.32
4578.4
57337.6
23358.6
8875.77
7874.58
4237.06
2331
12124.8
7916.3
7916.3
9132.82
10320.4
10467.4
8133.59
3985.86
898.098
5429.77
11227.3
14249.7
9132.82
10320.4
10467.4
8133.59
3985.86
898.098
5429.77
11227.3
14249.7
8298.58
8712.42
9046.09
9475.35
10145.7
11133
11505.2
9862.5
9197.88
8671.52
8718.17
9085.82
9751.21
9862.5
9197.88
8671.52
8718.17
9085.82
9751.21
8298.58
8712.42
9046.09
9475.35
10145.7
11133
3623.25
6721.86
9486.98
11756.1
14305.2
15506.8
17562.7
3147.58
5829.62
8353.77
10417.2
12722.9
13878
16200.9
3147.58
5829.62
8353.77
10417.2
12722.9
13878
16200.9
3623.25
6721.86
9486.98
11756.1
14305.2
15506.8
17562.7
11517.2
10199.9
8582.44
5683.22
2948.55
608.742
9904.86
9824.01
8525.06
7132.48
4674.28
2419.69
656.431
9904.86
9824.01
8525.06
7132.48
4674.28
2419.69
656.431
11505.2
11517.2
10199.9
8582.44
5683.22
2948.55
608.742

SCALARS 3DELEM_Hourglass_Energy float 1
LOOKUP_TABLE default
0
0
0
0
0
0
0
0
0
0
0
0
0
0
0
0
0
0
0
0
0
0
0
0
0
0
0
0
0
0
0
0
0
0
0
0
0
0
0
0
0
0
0
0
0
0
0
0
0
0
0
0
0
0
0
0
0
0
0
0
0
0
0
0
0
0
0
0
0
0
0
0
0
0
0
0
0
0
0
0
0
0
0
0
0
0
0
0
0
0
0
0
0
0
0
0
0
0
0
0
0
0
0
0
0
0
0
0
0
0
0
0
0
0
0
0
0
0
0
0
0
0
0
0
0
0
0
0
0
0
0
0
0
0
0
0
0
0
0
0
0
0

