# vtk DataFile Version 3.0
vtk output
ASCII
DATASET UNSTRUCTURED_GRID
FIELD FieldData 2
TIME 1 1 double
20.0004
CYCLE 1 1 int
0
POINTS 1206 float
194.644 80 0
204.557 80.9095 0
214.306 82.8193 0
224.067 84.7017 0
233.827 86.533 0
243.777 85.8951 0
252.02 80.5202 0
252.699 70.4366 0
248.273 61.5959 0
252.151 52.5026 0
262.078 52.1763 0
266.756 60.8296 0
263.957 69.8451 0
258.759 79.1537 0
261.676 88.451 0
269.484 82.2089 0
270.573 71.9456 0
273.595 61.2408 0
279.079 51.2682 0
286.069 42.4119 0
293.51 33.8666 0
301.566 26.0055 0
310.127 18.8123 0
318.913 11.8583 0
327.562 4.79525 0
335.829 -2.80928 0
342.794 -11.5573 0
349.936 -20.1501 0
352.507 -31.3575 0
352.7 -41.9151 0
345.431 -52.0312 0
341.001 -61.0187 0
344.147 -72.1334 0
351.566 -64.8932 0
351.286 -55.8285 0
352.289 -45.0526 0
359.792 -38.8608 0
369.602 -36.7466 0
379.522 -35.4581 0
389.495 -34.6259 0
399.506 -34.138 0
409.517 -34.3905 0
419.511 -34.8094 0
429.488 -35.6115 0
439.464 -36.2151 0
449.435 -36.9965 0
459.422 -37.5136 0
469.41 -37.8904 0
479.403 -38.4703 0.0106949
194.644 0 0
194.644 80 10
204.541 80.9558 9.99634
214.295 82.8962 10.0064
224.02 84.8712 10.0097
233.841 86.4331 10.023
243.757 86.0921 10.0211
252.014 80.3005 10.0053
252.884 70.5112 9.97131
248.249 61.6183 10.1335
252.154 52.3718 9.98267
262.228 51.8267 9.93433
267.613 60.4664 10.007
262.981 70.0747 9.97021
259.265 78.6768 10.0499
262.13 88.43 10.2829
269.989 82.2392 9.41434
271.541 72.5504 9.80931
274.115 61.5051 10.3705
279.918 51.9251 10.2582
286.965 43.0048 10.1451
294.663 34.9622 9.92405
302.001 26.4883 10.0133
310.235 18.9066 9.98213
318.811 11.7509 9.98633
327.57 4.76691 9.98559
335.503 -3.065 9.98722
343.071 -11.329 10.0193
349.073 -20.7829 10.0648
353.74 -30.7305 9.92134
351.09 -42.4059 10.01
347.125 -51.6238 9.9082
340.058 -61.7798 10.1361
344.248 -71.6364 10.0683
351.804 -65.7267 10.057
350.462 -54.8433 9.89729
352.394 -45.763 9.84306
359.778 -38.5729 10.0183
369.614 -36.9311 9.99035
379.536 -35.6386 10.0137
389.508 -34.6827 9.99065
399.511 -34.3642 10
409.515 -34.3737 9.99405
419.501 -35.0753 10.0002
429.484 -35.5748 9.99662
439.456 -36.3863 10.0043
449.438 -36.9292 9.99993
459.421 -37.4626 10.0041
469.42 -37.7782 10.0026
479.414 -37.8853 9.99678
194.644 0 0
194.644 80 20
204.53 80.9771 19.9966
214.224 83.09 20.0058
223.937 85.2208 20.0307
233.782 86.7068 20.0125
243.732 85.6991 20.0697
252.03 80.4379 19.983
253.389 70.4208 19.9933
249.119 61.5208 20.3418
251.976 52.0427 19.8672
261.654 52.1337 19.7314
266.277 60.9805 19.9499
263.276 69.5578 20.1159
258.332 78.8685 19.9589
263.091 87.5025 20.5932
272.471 83.7129 18.5007
274.323 73.7395 19.4423
277.331 63.3407 20.0455
282.622 53.5732 20.1117
289.831 45.3403 19.7118
297.483 37.2662 19.3066
303.881 28.2335 19.7448
310.941 19.6452 19.9541
318.796 11.7004 19.9733
327.433 4.65757 19.986
335.518 -3.06151 19.9901
341.963 -12.1007 19.9876
348.497 -21.0737 20.1032
353.647 -31.1396 19.9185
352.274 -41.7463 19.6684
343.517 -50.8738 19.8931
341.927 -60.8631 20.2917
344.243 -72.2366 20.1269
350.774 -64.2928 20.2686
349.962 -55.5503 19.7338
351.496 -44.729 19.7224
359.852 -39.4014 19.9516
369.697 -37.5441 20.0246
379.611 -36.3136 19.9596
389.549 -35.3015 19.9881
399.517 -34.5378 19.9888
409.511 -34.663 20.0007
419.5 -35.0319 19.988
429.48 -35.7449 20.0061
439.448 -36.3922 19.9997
449.437 -36.9086 20.0082
459.436 -37.1804 19.9973
469.432 -37.3037 19.9958
479.431 -37.5743 19.9936
194.644 0 0
194.644 80 30
204.548 80.5009 29.9934
214.24 82.1367 29.9393
223.999 83.5939 29.8263
233.733 85.4855 30.0425
243.724 85.8474 30.0548
252.455 80.488 30.0386
254.613 70.582 29.7729
251.414 61.0512 30.42
252.437 51.2367 30.3775
262.607 51.5069 28.8701
265.809 59.4396 29.6905
259.628 68.6764 29.7509
258.042 78.1292 29.9299
265.581 84.9791 30.4581
275.043 84.6747 28.1609
278.887 76.3372 28.2191
281.309 65.5025 29.3437
286.125 55.8867 29.7386
293.614 47.8617 29.0139
301.987 40.7225 27.4691
309.196 32.2884 27.4259
314.044 22.3056 29.1385
320.404 13.2484 29.7297
327.869 5.10973 29.9248
334.946 -3.45262 30.0534
340.479 -12.9774 29.8611
345.961 -22.7663 29.6743
352.71 -31.4552 30.1574
351.583 -42.3385 29.2416
346.283 -50.1263 29.8312
341.12 -61.55 30.7258
344.602 -70.4517 31.0042
351.271 -64.961 30.0361
347.441 -53.938 29.6178
351.18 -45.5886 29.3689
360.315 -41.4137 29.905
370.164 -40.6964 29.4748
379.909 -38.8418 29.6637
389.749 -37.7452 29.6739
399.54 -35.6189 29.9771
409.527 -35.1647 29.9657
419.494 -35.2016 29.9999
429.458 -35.7811 29.9979
439.464 -36.1381 30.0137
449.47 -36.172 29.9734
459.463 -36.1768 29.9581
469.457 -36.2426 29.9315
479.447 -36.3595 29.9376
194.644 0 0
194.644 80 40
204.553 80.0477 40.0043
214.668 79.8524 39.7667
224.687 79.1551 38.8351
233.992 78.9767 37.9802
242.377 80.1326 38.4465
249.928 78.4939 40.256
255.429 70.6823 39.8801
257.228 60.8071 39.5435
256.11 52.3625 40.0037
263.54 52.8438 39.4029
263.345 63.9147 39.6168
265.577 72.2173 41.6133
262.084 74.7159 40.2208
268.792 77.809 37.5139
276.719 78.8203 36.6732
282.453 77.8141 37.839
288.513 69.7206 37.4555
292.798 60.3199 37.0508
299.39 52.4154 36.2537
307.931 45.4648 34.0831
313.981 35.6787 35.4498
318.553 25.6709 37.451
323.376 15.7251 39.1029
328.464 5.65817 40.0505
333.374 -4.41614 39.9545
338.194 -14.5256 39.5038
342.961 -24.5209 39.0493
347.642 -34.3376 38.8837
351.168 -44.041 38.6439
350.766 -50.1777 40.5149
349.188 -58.3046 38.9168
346.72 -69.3242 42.0029
350.539 -60.7591 40.3723
351.335 -54.9431 40.4425
353.436 -49.1258 38.4146
361.811 -48.5187 37.5474
370.901 -46.0766 37.7363
380.506 -43.7986 38.502
390.197 -41.3096 38.9388
399.763 -38.8791 39.5035
409.49 -36.3089 39.9435
419.493 -34.7742 39.9909
429.541 -34.2236 39.9098
439.522 -33.8494 39.7433
449.495 -33.4851 39.6197
459.487 -33.0522 39.4495
469.495 -32.7434 39.3169
479.483 -32.4244 39.1348
194.644 0 0
194.644 70 40
204.547 70.0297 39.6703
214.141 70.0171 37.4301
223.518 70.1643 34.4355
232.632 70.6597 30.7017
241.355 69.3453 34.1879
242.154 70.0256 43.3496
248.693 66.577 47.6905
255.269 61.3655 50.6
256.849 50.6948 49.2307
264.886 57.0519 49.5875
273.205 59.7247 48.5983
276.654 61.7571 42.6081
269.142 65.2682 37.877
268.365 70.2464 28.2088
277.301 69.1566 30.4137
280.348 68.1677 40.3262
287.777 62.8152 45.2648
294.532 54.1138 46.1225
299.319 45.1984 41.7267
303.099 37.0582 35.5606
307.888 27.4768 36.414
312.489 17.7538 39.5086
317.478 7.7163 40.331
322.393 -2.30079 40.2047
327.241 -12.3212 39.199
332.084 -22.271 37.9794
336.885 -32.4059 37.4647
341.566 -41.5908 33.6953
345.645 -50.9314 32.9412
343.843 -55.5463 43.764
348.656 -63.0245 49.3057
353.459 -68.4053 54.8787
354.058 -67.0376 44.1552
353.877 -62.4442 39.0183
354.6 -56.8007 28.3632
363.589 -55.6768 30.2892
373.236 -54.1642 32.1604
382.827 -52.1123 33.5199
392.48 -50.1344 34.6645
402.059 -48.2066 36.5898
411.113 -46.2594 39.7237
420.306 -44.3329 43.0688
429.998 -43.3198 44.1261
439.924 -42.8394 44.1981
449.916 -42.3029 44.2426
459.878 -41.6383 44.6633
469.815 -40.7943 45.1845
479.772 -40.0447 45.7051
194.644 0 0
194.644 60 40
204.554 60.0109 39.5347
214.011 60.0601 36.6503
222.882 60.2773 32.0988
231.935 60.5184 28.33
240.069 59.5137 34.2835
236.894 61.024 44.7148
241.77 60.4741 53.5585
249.956 57.6734 58.5651
258.758 54.3892 61.696
267.923 50.6638 57.7596
273.8 48.9031 49.587
272.831 51.4931 39.2973
265.516 58.093 35.0672
268.609 59.2023 25.2818
276.845 58.4714 30.4935
279.705 58.7526 39.3251
284.224 54.0535 49.4111
290.726 44.8519 48.2572
292.699 38.042 39.2409
297.228 29.2399 33.963
302.16 19.3161 35.5775
306.611 9.6141 38.6229
311.409 -0.267099 40.4604
316.291 -10.2869 40.1476
321.157 -20.2463 39.0313
325.955 -30.2325 37.4964
330.71 -40.0818 35.5414
335.12 -49.5069 31.2955
339.891 -59.5174 34.3595
341.314 -64.816 43.4084
341.632 -68.9097 55.0019
348.543 -77.9805 50.9153
353.559 -75.9723 43.236
348.514 -68.996 31.8869
356.012 -67.0025 26.2409
365.867 -65.1029 26.7923
375.208 -63.5509 29.9806
384.986 -61.8015 31.5176
394.264 -60.0172 35.1156
403.298 -57.9924 38.6279
411.712 -55.4461 43.6282
420.697 -53.4374 47.0605
430.406 -52.2915 48.7377
440.362 -51.6446 48.9008
450.317 -51.1273 48.9857
460.271 -50.3827 49.4323
470.117 -49.3872 50.5099
480 -49.101 48.9537
194.644 0 0
194.644 50 40
204.57 50.0099 39.4268
213.946 50.0716 36.0663
222.35 50.3119 30.7948
231.777 50.175 27.6245
237.561 50.0093 35.882
236.392 50.8672 44.8037
238.113 51.0938 54.76
245.922 48.6371 60.3195
255.345 44.9314 60.9984
263.557 41.999 56.8197
267.918 40.7602 47.8043
264.501 44.9922 39.6711
260.543 50.3252 32.5142
267.299 48.8005 25.0889
274.441 48.2903 31.6782
278.037 49.7575 41.2091
280.101 44.9277 51.0209
285.718 36.089 47.5397
286.829 30.1432 37.7191
291.431 21.1376 33.132
296.14 11.2599 35.1071
300.588 1.57276 38.3793
305.288 -8.29063 40.3943
310.226 -18.276 40.3775
315.031 -28.2388 38.8495
319.827 -38.1284 37.1041
324.402 -47.8956 34.1157
329.098 -57.7229 31.9978
333.314 -66.7864 36.1453
334.749 -71.6466 46.574
338.001 -78.8352 54.0981
344.372 -85.5157 48.1905
343.274 -80.0267 38.0131
348.526 -77.9286 30.1123
357.872 -76.9352 25.8002
367.285 -75.1904 28.175
376.499 -73.1676 31.4021
385.588 -71.223 35.4738
394.162 -68.7433 39.7017
402.673 -66.2742 44.5584
411.549 -64.1021 48.3169
420.903 -62.4055 51.6956
430.821 -61.4824 52.5857
440.799 -60.869 52.9223
450.792 -60.2982 52.8911
460.793 -59.884 52.5637
470.824 -59.5384 51.6475
480 -58.601 47.7805
194.644 0 0
194.644 40 40
204.563 40.0159 39.2747
213.811 40.0827 35.5669
221.792 40.2789 29.5889
231.518 40.0593 27.8054
236.636 39.7984 36.0571
231.956 41.8948 45.9805
234.51 41.8118 55.504
242.466 39.0765 60.8831
251.721 35.8071 61.4653
259.917 32.5374 56.0131
261.478 32.9713 46.2774
257.383 37.9869 38.6956
255.652 41.8526 29.2325
265.303 38.8973 26.2946
270.596 39.6494 35.2121
271.714 42.6014 44.1628
275.656 36.0672 52.2511
280.041 27.7267 46.1152
281.02 22.2833 36.8017
285.57 13.0208 32.0055
290.046 3.24739 35.0491
294.472 -6.44271 38.1679
299.21 -16.2961 40.4632
304.11 -26.31 40.3892
308.976 -36.2379 39.1084
313.637 -46.0888 36.5621
[...]
POINT_DATA 1206
SCALARS NODE_ID int 1
LOOKUP_TABLE default
1
2
3
4
5
6
7
8
9
10
11
12
13
14
15
16
17
18
19
20
21
22
23
24
25
26
27
28
29
30
31
32
33
34
35
36
37
38
39
40
41
42
43
44
45
46
47
48
49
50
51
52
53
54
55
56
57
58
59
60
61
62
63
64
65
66
67
68
69
70
71
72
73
74
75
76
77
78
79
80
81
82
83
84
85
86
87
88
89
90
91
92
93
94
95
96
97
98
99
100
101
102
103
104
105
106
107
108
109
110
111
112
113
114
115
116
117
118
119
120
121
122
123
124
125
126
127
128
129
130
131
132
133
134
135
136
137
138
139
140
141
142
143
144
145
146
147
148
149
150
151
152
153
154
155
156
157
158
159
160
161
162
163
164
165
166
167
168
169
170
171
172
173
174
175
176
177
178
179
180
181
182
183
184
185
186
187
188
189
190
191
192
193
194
195
196
197
198
199
200
201
202
203
204
205
206
207
208
209
210
211
212
213
214
215
216
217
218
219
220
221
222
223
224
225
226
227
228
229
230
231
232
233
234
235
236
237
238
239
240
241
242
243
244
245
246
247
248
249
250
251
252
253
254
255
256
257
258
259
260
261
262
263
264
265
266
267
268
269
270
271
272
273
274
275
276
277
278
279
280
281
282
283
284
285
286
287
288
289
290
291
292
293
294
295
296
297
298
299
300
301
302
303
304
305
306
307
308
309
310
311
312
313
314
315
316
317
318
319
320
321
322
323
324
325
326
327
328
329
330
331
332
333
334
335
336
337
338
339
340
341
342
343
344
345
346
347
348
349
350
351
352
353
354
355
356
357
358
359
360
361
362
363
364
365
366
367
368
369
370
371
372
373
374
375
376
377
378
379
380
381
382
383
384
385
386
387
388
389
390
391
392
393
394
395
396
397
398
399
400
401
402
403
404
405
406
407
408
409
410
411
412
413
414
415
416
417
418
419
420
421
422
423
424
425
426
427
428
429
430
431
432
433
434
435
436
437
438
439
440
441
442
443
444
445
446
447
448
449
450
451
452
453
454
455
456
457
458
459
460
461
462
463
464
465
466
467
468
469
470
471
472
473
474
475
476
477
478
479
480
481
482
483
484
485
486
487
488
489
490
491
492
493
494
495
496
497
498
499
500
501
502
503
504
505
506
507
508
509
510
511
512
513
514
515
516
517
518
519
520
521
522
523
524
525
526
527
528
529
530
531
532
533
534
535
536
537
538
539
540
541
542
543
544
545
546
547
548
549
550
551
552
553
554
555
556
557
558
559
560
561
562
563
564
565
566
567
568
569
570
571
572
573
574
575
576
577
578
579
580
581
582
583
584
585
586
587
588
589
590
591
592
593
594
595
596
597
598
599
600
601
602
603
604
605
606
607
608
609
610
611
612
613
614
615
616
617
618
619
620
621
622
623
624
625
626
627
628
629
630
631
632
633
634
635
636
637
638
639
640
641
642
643
644
645
646
647
648
649
650
651
652
653
654
655
656
657
658
659
660
661
662
663
664
665
666
667
668
669
670
671
672
673
674
675
676
677
678
679
680
681
682
683
684
685
686
687
688
689
690
691
692
693
694
695
696
697
698
699
700
701
702
703
704
705
706
707
708
709
710
711
712
713
714
715
716
717
718
719
720
721
722
723
724
725
726
727
728
729
730
731
732
733
734
735
736
737
738
739
740
741
742
743
744
745
746
747
748
749
750
751
752
753
754
755
756
757
758
759
760
761
762
763
764
765
766
767
768
769
770
771
772
773
774
775
776
777
778
779
780
781
782
783
784
785
786
787
788
789
790
791
792
793
794
795
796
797
798
799
800
801
802
803
804
805
806
807
808
809
810
811
812
813
814
815
816
817
818
819
820
821
822
823
824
825
826
827
828
829
830
831
832
833
834
835
836
837
838
839
840
841
842
843
844
845
846
847
848
849
850
851
0
0
0
0
0
0
0
0
0
0
0
0
0
0
0
0
0
0
0
0
0
0
0
0
0
0
0
0
0
0
0
0
0
0
0
0
0
0
0
0
0
0
0
0
0
0
0
0
0
0
0
0
0
0
0
0
0
0
0
0
0
0
0
0
0
0
0
0
0
0
0
0
0
0
0
0
0
0
0
0
0
0
0
0
0
0
0
0
0
0
0
0
0
0
0
0
0
0
0
0
0
0
0
0
0
0
0
0
0
0
0
0
0
0
0
0
0
0
0
0
0
0
0
0
0
0
0
0
0
0
0
0
0
0
0
0
0
0
0
0
0
0
0
0
0
0
0
0
0
0
0
0
0
0
0
0
0
0
0
0
0
0
0
0
0
0
0
0
0
0
0
0
0
0
0
0
0
0
0
0
0
0
0
0
0
0
0
0
0
0
0
0
0
0
0
0
0
0
0
0
0
0
0
0
0
0
0
0
0
0
0
0
0
0
0
0
0
0
0
0
0
0
0
0
0
0
0
0
0
0
0
0
0
0
0
0
0
0
0
0
0
0
0
0
0
0
0
0
0
0
0
0
0
0
0
0
0
0
0
0
0
0
0
0
0
0
0
0
0
0
0
0
0
0
0
0
0
0
0
0
0
0
0
0
0
0
0
0
0
0
0
0
0
0
0
0
0
0
0
0
0
0
0
0
0
0
0
0
0
0
0
0
0
0
0
0
0
0
0
0
0
0
0
0
0
0
0
0
0
0
0
0
0
0
0
0
0
0
0
0
0
0
0
0
0
0
0
0
0
0
0
0
0
0
0

SCALARS Time_Step float 1
LOOKUP_TABLE default
1e+06
0.00198406
0.00198241
0.00198132
0.00197973
0.00196955
0.00196085
0.00196389
0.00196657
0.00197292
0.00196879
0.0019135
0.00186652
0.00189303
0.00190761
0.00189657
0.00192702
0.0019775
0.00200019
0.00198793
0.00198599
0.00198709
0.00198695
0.00198848
0.00198833
0.00198761
0.00198745
0.00198395
0.0019796
0.00161102
0.00185318
0.00199161
0.00195139
0.00185184
0.0018278
0.00146271
0.00196186
0.00198615
0.00198778
0.00198746
0.0019882
0.00198886
0.00198925
0.00198953
0.00198963
0.00198989
0.00198967
0.00198914
0.00198896
1e+06
1e+06
0.00198334
0.00198179
0.0019817
0.00197986
0.00196852
0.00195981
0.00196099
0.00196383
0.00196603
0.00196105
0.00189628
0.00185256
0.00189896
0.00191076
0.00189779
0.00194168
0.00199401
0.00201013
0.00199521
0.00199093
0.0019917
0.00198867
0.00198859
0.00198957
0.00198941
0.00199104
0.00198964
0.00197293
0.00194703
0.00196012
0.00198177
0.00194612
0.00183646
0.00181408
0.00189955
0.00196815
0.0019849
0.001986
0.00198698
0.00198831
0.00198861
0.00198869
0.00198895
0.00198936
0.00198983
0.00198978
0.0019894
0.00198916
1e+06
1e+06
0.00197899
0.00197759
0.00198042
0.00198063
0.00196708
0.00195541
0.00195625
0.0019526
0.00192352
0.00189101
0.00184172
0.00183783
0.00190795
0.00191894
0.00188733
0.00194482
0.00202153
0.00202915
0.00200255
0.00198561
0.00199046
0.00199048
0.00199045
0.00198894
0.00199143
0.00199572
0.00199195
0.00196641
0.00156285
0.00180756
0.00194883
0.00187543
0.00177765
0.00178668
0.00143863
0.00196293
0.00197799
0.0019807
0.00198355
0.00198706
0.00198714
0.00198749
0.001988
0.00198861
0.00198925
0.00198958
0.00198934
0.00198902
1e+06
1e+06
0.00197092
0.00196479
0.00194742
0.00188684
0.00180157
0.00183044
0.00193125
0.00187999
0.00168415
0.0014259
0.00151244
0.00152514
0.00152991
0.00174259
0.0016151
0.0017052
0.00200751
0.00203098
0.00200946
0.00197544
0.00197741
0.001988
0.00199485
0.00199239
0.00199363
0.00199561
0.00198863
0.00196735
0.00150811
0.00148388
0.00177768
0.00178044
0.0013995
0.00153135
0.00134632
0.00186997
0.00195077
0.00197506
0.00197599
0.00198106
0.0019826
0.00198357
0.00198628
0.00198756
0.00198839
0.00198899
0.00198874
0.00198861
1e+06
1e+06
0.00196707
0.00195489
0.00190628
0.00177907
0.00160628
0.00162139
0.00177159
0.00175351
0.00161395
0.00150806
0.00142435
0.00124993
0.00129584
0.00151375
0.0014393
0.00155445
0.00199975
0.00197458
0.00190763
0.00192356
0.00198183
0.00199644
0.00199355
0.00199334
0.00199207
0.00199098
0.00198809
0.00199162
0.00165437
0.0015248
0.00153495
0.00174425
0.00148421
0.00137683
0.00152898
0.00178247
0.00192945
0.00197497
0.00197241
0.001968
0.00196985
0.00197124
0.00197497
0.00198403
0.0019858
0.00198591
0.00198572
0.0019857
1e+06
1e+06
0.00197222
0.00196057
0.00192197
0.00182903
0.00167681
0.00162638
0.00169066
0.00172161
0.0016849
0.00160386
0.00138227
0.00132571
0.00143395
0.0015502
0.00159829
0.00169779
0.00198391
0.00196312
0.00188665
0.00192672
0.0019935
0.00200031
0.0019914
0.00199027
0.00198864
0.00198971
0.00198916
0.00201478
0.00155128
0.00172031
0.00176904
0.00170954
0.00160382
0.00147612
0.00159771
0.0018274
0.00194356
0.00197013
0.00197077
0.00195975
0.00195935
0.001964
0.00196779
0.00198128
0.00198433
0.00198303
0.00196837
0.00195519
1e+06
1e+06
0.00197767
0.00197165
0.00195504
0.00193152
0.00185716
0.00180783
0.00183634
0.0018492
0.00184584
0.00181767
0.00168952
0.00168544
0.00161491
0.00166419
0.00185971
0.00186806
0.00194094
0.00199748
0.00198029
0.00198931
0.00199354
0.00199563
0.00199513
0.00199318
0.00199049
0.00199024
0.00199259
0.00199955
0.00197902
0.00193152
0.00179211
0.00170873
0.00157196
0.00151771
0.00174631
0.00192092
0.00195165
0.00195623
0.00196348
0.00195914
0.00195932
0.00196742
0.00197501
0.00198249
0.00198488
0.00197981
0.00194697
0.00192119
1e+06
1e+06
0.00198217
0.0019784
0.00196498
0.00194734
0.00185759
0.00187185
0.00197007
0.00196324
0.00194024
0.00192924
0.00192724
0.00190618
0.00152882
0.00179267
0.0019005
0.00190324
0.0019568
0.0019795
0.00196952
0.00198482
0.00199809
0.00199936
0.00199676
0.00199472
0.00199246
0.00199157
0.00199545
0.00198618
0.00198119
0.00196843
0.00191672
0.00181267
0.00172482
0.00179714
0.00192974
0.00195467
0.00195234
0.00195171
0.00195611
0.00195658
0.00196043
0.00196836
0.00197742
0.00198219
0.00198442
0.0019805
0.0019598
0.00194502
1e+06
1e+06
0.00198572
0.00198122
0.0019709
0.00193715
0.00182536
0.00184697
0.00196087
0.00196175
0.00193843
0.00192844
0.00193818
0.00193139
0.00193844
0.00192515
0.00188981
0.00192418
0.00197804
0.00198017
0.0019776
0.00199038
0.00200066
0.00199613
0.00199577
0.00199602
0.00199511
0.00199604
0.00199902
0.00198119
0.00196291
0.00197592
0.00197407
0.00189254
0.00188812
0.00195858
0.00196277
0.00195278
0.00194373
0.0019423
0.00194477
0.00194964
0.00195935
0.00196998
0.00197846
0.00198278
0.00198287
0.00198307
0.00198273
0.00198122
1e+06
1e+06
0.00198506
0.00197892
0.00196579
0.00191499
0.00177369
0.00179779
0.00194409
0.00196154
0.0019242
0.00186885
0.0016184
0.00189917
0.00185829
0.00177588
0.00175543
0.00187081
0.0019442
0.00196921
0.00198706
0.00198932
0.00199706
0.00199488
0.00199475
0.00199584
0.0019965
0.00199786
0.00199977
0.00198348
0.00196014
0.00196904
0.001964
0.00190842
0.00190989
0.00194785
0.00193845
0.0019211
0.00191298
0.00191496
0.00192797
0.00194939
0.00196694
0.00197304
0.00197679
0.00197923
0.00197737
0.00197956
0.00198063
0.00197928
1e+06
1e+06
0.00197884
0.00196827
0.00194247
0.00186374
0.00166329
0.00164075
0.00170016
0.00167706
0.00167462
0.00171044
0.00184115
0.00185479
0.00176064
0.00148671
0.00147095
0.00172103
0.00186618
0.0016464
0.0016738
0.00199606
0.0019953
0.0019957
0.00199539
0.00199591
0.00199654
0.00199861
0.00199979
0.00198801
0.00196661
0.00196246
0.00195605
0.00192487
0.00191829
0.00190606
0.00190279
0.001915
0.00190514
0.00187677
0.00185902
0.00190309
0.00195683
0.00197095
0.00197088
0.0019729
0.0019754
0.0019787
0.00197756
0.00197521
1e+06
1e+06
0.00196727
0.00189173
0.00168419
0.00125803
0.00134139
0.00142117
0.00155285
0.00140512
0.0012759
0.00126956
0.00147588
0.00164192
0.00163062
0.00156315
0.00153346
0.00164539
0.0017088
0.00174392
0.00192049
0.00201693
0.00199546
0.00199221
0.00199363
0.00199472
0.00199307
0.00199162
0.00199959
0.00199166
0.00196386
0.00194865
0.00192778
0.00191505
0.00193159
0.00189014
0.0018924
0.00193327
0.00190602
0.00186454
0.00182564
0.00187119
0.00193862
0.00195093
0.00196063
0.00196676
0.00197478
0.00197898
0.00197178
0.00196513
1e+06
1e+06
0.00194968
0.00183114
0.00153845
0.00122654
0.00103926
0.00133895
0.00159286
0.00143993
0.00117048
0.00106612
0.00132813
0.00152523
0.00150603
0.00136431
0.00147821
0.00141038
0.00134291
0.00155267
0.00187817
0.00200858
0.00199041
0.00198607
0.00198621
0.00198643
0.00198515
0.00198353
0.00198842
0.00198466
0.00196908
0.00195724
0.00194337
0.0019409
0.0019572
0.00193395
0.00193143
0.00194466
0.00189865
0.00185826
0.00181625
0.00185136
0.00193348
0.00195105
0.00196299
0.00196966
0.00197674
0.00198151
0.00196321
0.001947
1e+06
1e+06
0.00195104
0.00189004
0.00171826
0.00143293
0.00111664
0.00123868
0.00186267
0.00168066
0.0015771
0.00116545
0.00141426
0.00169172
0.00134324
0.00150865
0.00137338
0.0015652
0.00139706
0.00137448
0.00188699
0.0019913
0.00198591
0.00198471
0.00198408
0.00198382
0.00198416
0.00198392
0.00198238
0.00198034
0.00198107
0.00198086
0.00197894
0.00197694
0.0019788
0.00197705
0.00197612
0.00196994
0.00193829
0.00190626
0.00187396
0.00189428
0.00195607
0.00197547
0.0019791
0.0019819
0.00198289
0.00198455
0.00197302
0.0019616
1e+06
1e+06
0.00197378
0.00196761
0.00195287
0.00193392
0.00164889
0.00195388
0.00194988
0.0018532
0.00176719
0.00169519
0.00176534
0.00190791
0.00181763
0.00174968
0.00180543
0.00185259
0.0018264
0.00183553
0.00194806
0.00197884
0.00198786
0.0019879
0.00198821
0.00198816
0.00198792
0.00198711
0.0019868
0.00198763
0.00198855
0.00198882
0.001988
0.00198244
0.0019823
0.00198573
0.00198465
0.00198593
0.00198408
0.00198187
0.00198077
0.00198194
0.00198424
0.00198351
0.00198452
0.0019863
0.00198455
0.00198394
0.00198545
0.00198563
1e+06
1e+06
0.0019849
0.00198329
0.00197588
0.00197384
0.00146985
0.00196151
0.00195539
0.00190025
0.00184848
0.00159961
0.00163173
0.00193701
0.00189829
0.0018602
0.00187419
0.00194993
0.00195301
0.00192769
0.00196474
0.00197997
0.00199025
0.00198944
0.00198998
0.00198989
0.00198956
0.00198965
0.00199002
0.00199021
0.00199017
0.00198989
0.00198955
0.00198632
0.00198577
0.00198911
0.00198885
0.00198739
0.00198583
0.00198622
0.00198639
0.00198407
0.0019836
0.00198484
0.00198569
0.00198677
0.00198587
0.0019848
0.0019861
0.00198694
1e+06
1e+06
0.00198626
0.00198417
0.00197751
0.00197577
0.00149276
0.0019634
0.0019551
0.00190129
0.00187508
0.00163066
0.00164566
0.00192728
0.00189623
0.0018712
0.00188342
0.00195597
0.00197805
0.00196068
0.00198161
0.00198553
0.00198959
0.00198971
0.00199005
0.00199
0.00198985
0.00199038
0.001991
0.001991
0.00199044
0.0019899
0.00198979
0.00198824
0.00198803
0.00198966
0.00198921
0.0019873
0.00198556
0.00198598
0.00198792
0.00198573
0.00198378
0.00198518
0.00198592
0.00198689
0.00198685
0.00198568
0.00198571
0.00198644
1e+06
0.00198017
0
0
0
0
0
0
0
0
0
0
0
0
0
0
0
0
0
0
0
0
0
0
0
0
0
0
0
0
0
0
0
0
0
0
0
0
0
0
0
0
0
0
0
0
0
0
0
0
0
0
0
0
0
0
0
0
0
0
0
0
0
0
0
0
0
0
0
0
0
0
0
0
0
0
0
0
0
0
0
0
0
0
0
0
0
0
0
0
0
0
0
0
0
0
0
0
0
0
0
0
0
0
0
0
0
0
0
0
0
0
0
0
0
0
0
0
0
0
0
0
0
0
0
0
0
0
0
0
0
0
0
0
0
0
0
0
0
0
0
0
0
0
0
0
0
0
0
0
0
0
0
0
0
0
0
0
0
0
0
0
0
0
0
0
0
0
0
0
0
0
0
0
0
0
0
0
0
0
0
0
0
0
0
0
0
0
0
0
0
0
0
0
0
0
0
0
0
0
0
0
0
0
0
0
0
0
0
0
0
0
0
0
0
0
0
0
0
0
0
0
0
0
0
0
0
0
0
0
0
0
0
0
0
0
0
0
0
0
0
0
0
0
0
0
0
0
0
0
0
0
0
0
0
0
0
0
0
0
0
0
0
0
0
0
0
0
0
0
0
0
0
0
0
0
0
0
0
0
0
0
0
0
0
0
0
0
0
0
0
0
0
0
0
0
0
0
0
0
0
0
0
0
0
0
0
0
0
0
0
0
0
0
0
0
0
0
0
0
0
0
0
0
0
0
0
0
0
0
0
0
0
0
0
0
0
0
0
0
0
0
0
0
0
0
0
0
0
0
0
0
0
0
0
0
0

SCALARS Mass_Change float 1
LOOKUP_TABLE default
0
0
0
0
0
0
0
0
0
0
0
0
0
0
0
0
0
0
0
0
0
0
0
0
0
0
0
0
0
0
0
0
0
0
0
0
0
0
0
0
0
0
0
0
0
0
0
0
0
0
0
0
0
0
0
0
0
0
0
0
0
0
0
0
0
0
0
0
0
0
0
0
0
0
0
0
0
0
0
0
0
0
0
0
0
0
0
0
0
0
0
0
0
0
0
0
0
0
0
0
0
0
0
0
0
0
0
0
0
0
0
0
0
0
0
0
0
0
0
0
0
0
0
0
0
0
0
0
0
0
0
0
0
0
0
0
0
0
0
0
0
0
0
0
0
0
0
0
0
0
0
0
0
0
0
0
0
0
0
0
0
0
0
0
0
0
0
0
0
0
0
0
0
0
0
0
0
0
0
0
0
0
0
0
0
0
0
0
0
0
0
0
0
0
0
0
0
0
0
0
0
0
0
0
0
0
0
0
0
0
0
0
0
0
0
0
0
0
0
0
0
0
0
0
0
0
0
0
0
0
0
0
0
0
0
0
0
0
0
0
0
0
0
0
0
0
0
0
0
0
0
0
0
0
0
0
0
0
0
0
0
0
0
0
0
0
0
0
0
0
0
0
0
0
0
0
0
0
0
0
0
0
0
0
0
0
0
0
0
0
0
0
0
0
0
0
0
0
0
0
0
0
0
0
0
0
0
0
0
0
0
0
0
0
0
0
0
0
0
0
0
0
0
0
0
0
0
0
0
0
0
0
0
0
0
0
0
0
0
0
0
0
0
0
0
0
0
0
0
0
0
0
0
0
0
0
0
0
0
0
0
0
0
0
0
0
0
0
0
0
0
0
0
0
0
0
0
0
0
0
0
0
0
0
0
0
0
0
0
0
0
0
0
0
0
0
0
0
0
0
0
0
0
0
0
0
0
0
0
0
0
0
0
0
0
0
0
0
0
0
0
0
0
0
0
0
0
0
0
0
0
0
0
0
0
0
0
0
0
0
0
0
0
0
0
0
0
0
0
0
0
0
0
0
0
0
0
0
0
0
0
0
0
0
0
0
0
0
0
0
0
0
0
0
0
0
0
0
0
0
0
0
0
0
0
0
0
0
0
0
0
0
0
0
0
0
0
0
0
0
0
0
0
0
0
0
0
0
0
0
0
0
0
0
0
0
0
0
0
0
0
0
0
0
0
0
0
0
0
0
0
0
0
0
0
0
0
0
0
0
0
0
0
0
0
0
0
0
0
0
0
0
0
0
0
0
0
0
0
0
0
0
0
0
0
0
0
0
0
0
0
0
0
0
0
0
0
0
0
0
0
0
0
0
0
0
0
0
0
0
0
0
0
0
0
0
0
0
0
0
0
0
0
0
0
0
0
0
0
0
0
0
0
0
0
0
0
0
0
0
0
0
0
0
0
0
0
0
0
0
0
0
0
0
0
0
0
0
0
0
0
0
0
0
0
0
0
0
0
0
0
0
0
0
0
0
0
0
0
0
0
0
0
0
0
0
0
0
0
0
0
0
0
0
0
0
0
0
0
0
0
0
0
0
0
0
0
0
0
0
0
0
0
0
0
0
0
0
0
0
0
0
0
0
0
0
0
0
0
0
0
0
0
0
0
0
0
0
0
0
0
0
0
0
0
0
0
0
0
0
0
0
0
0
0
0
0
0
0
0
0
0
0
0
0
0
0
0
0
0
0
0
0
0
0
0
0
0
0
0
0
0
0
0
0
0
0
0
0
0
0
0
0
0
0
0
0
0
0
0
0
0
0
0
0
0
0
0
0
0
0
0
0
0
0
0
0
0
0
0
0
0
0
0
0
0
0
0
0
0
0
0
0
0
0
0
0
0
0
0
0
0
0
0
0
0
0
0
0
0
0
0
0
0
0
0
0
0
0
0
0
0
0
0
0
0
0
0
0
0
0
0
0
0
0
0
0
0
0
0
0
0
0
0
0
0
0
0
0
0
0
0
0
0
0
0
0
0
0
0
0
0
0
0
0
0
0
0
0
0
0
0
0
0
0
0
0
0
0
0
0
0
0
0
0
0
0
0
0
0
0
0
0
0
0
0
0
0
0
0
0
0
0
0
0
0
0
0
0
0
0
0
0
0
0
0
0
0
0
0
0
0
0
0
0
0
0
0
0
0
0
0
0
0
0
0
0
0
0
0
0
0
0
0
0
0
0
0
0
0
0
0
0
0
0
0
0
0
0
0
0
0
0
0
0
0
0
0
0
0
0
0
0
0
0
0
0
0
0
0
0
0
0
0
0
0
0
0
0
0
0
0
0
0
0
0
0
0
0
0
0
0
0
0
0
0
0
0
0
0
0
0
0
0
0
0
0
0
0
0
0
0
0
0
0
0
0
0
0
0
0
0
0
0
0
0
0
0
0
0
0
0
0
0
0
0
0
0
0
0
0
0
0
0
0
0
0
0
0
0
0
0
0
0
0
0
0
0
0
0
0
0
0
0
0
0
0
0
0
0
0
0
0
0
0
0
0
0
0
0
0
0
0
0
0
0
0
0
0
0
0
0
0
0
0
0
0
0
0
0
0
0
0
0
0
0
0
0
0
0
0
0
0
0
0
0
0
0
0
0
0
0
0
0
0
0
0
0
0
0
0
0
0
0
0
0
0
0
0
0
0
0
0
0
0
0
0
0
0
0
0
0
0
0
0
0
0
0
0
0
0
0
0
0
0
0
0
0
0
0
0
0
0
0
0
0

VECTORS Velocity float
9.41853 0 0
9.43148 0.0226857 0
9.40571 0.326581 0
9.32814 0.540283 0
9.35735 0.464182 0
9.36781 -0.134421 0
8.92639 -0.606409 0
6.80654 -0.651214 0
3.34624 1.01052 0
0.960943 0.0861624 0
0.77769 -0.31529 0
0.754496 -0.232322 0
0.622232 -0.289203 0
0.115492 -0.443407 0
0.185173 -0.46723 0
-0.096347 -0.730675 0
0.0116191 -0.648547 0
0.186845 -0.594657 0
0.387469 -0.551843 0
0.404133 -0.572489 0
0.419867 -0.593298 0
0.298209 -0.591802 0
0.444926 -0.483081 0
0.483469 -0.568447 0
0.37025 -0.617525 0
0.437543 -0.539004 0
0.336843 -0.487122 0
0.569373 -0.523703 0
0.201645 -0.470122 0
0.238411 -0.549825 0
0.27888 -0.497777 0
0.298449 -0.511692 0
0.333575 -0.522307 0
0.11103 -0.422485 0
0.166201 -0.552526 0
0.214994 -0.614157 0
0.0973618 -0.330949 0
-0.0139587 -0.324698 0
0.0422824 -0.210291 0
0.0944008 -0.129697 0
0.0577357 -0.406139 0
0.112198 -0.18293 0
0.114286 -0.276916 0
0.0505192 -0.290957 0
0.0350475 -0.461591 0
0.160861 -0.390448 0
-0.0370674 -0.509378 0
0.146703 -0.378059 0
-0.0717105 -0.253909 0.0273799
9.41853 0 0
9.41853 0 0
9.42549 0.285996 0.0895533
9.30501 0.529949 0.0450528
9.21805 0.871985 0.0312254
9.28966 0.563999 0.0752675
9.29595 -0.139634 -0.0197589
9.07084 -0.473537 -0.0673373
6.8142 -0.717758 0.0158876
3.40548 1.05154 0.1031
1.00024 0.135135 0.0374366
0.984981 -0.395389 -0.0167763
0.772501 -0.30853 0.0193474
0.594518 -0.332609 -0.00845734
0.324919 -0.618536 -0.0243514
0.115012 -0.496346 0.0116566
0.170051 -0.577449 -0.0780988
0.0998592 -0.675316 -0.0195452
0.473774 -0.543002 -0.12497
0.319016 -0.476421 -0.0573817
0.417644 -0.440792 0.0502484
0.473327 -0.419509 -0.0295704
0.456974 -0.48416 0.0653177
0.469162 -0.498042 -0.0371774
0.396574 -0.54205 0.0214137
0.458115 -0.506161 -0.04776
0.393334 -0.514783 0.0675324
0.407741 -0.551334 -0.00111154
0.32751 -0.514001 0.00861261
0.32573 -0.519271 0.0050047
0.240624 -0.447962 0.00999151
0.294962 -0.544444 0.0723592
0.323112 -0.496248 -0.00240664
0.291486 -0.539014 0.0551108
0.371118 -0.557259 -0.0455998
0.266617 -0.522862 0.0907147
0.104131 -0.488171 -0.0916386
0.0275706 -0.517469 0.0599954
0.0544243 -0.251393 -0.0190552
0.0607398 -0.2223 0.0410353
-0.00197262 -0.262641 -0.0288741
0.0894501 -0.110931 -0.0150301
0.0901431 -0.260334 -0.0295985
0.0392683 -0.181819 0.000156265
0.0629652 -0.324903 -0.0241681
0.108186 -0.418096 -0.00699645
-0.0126694 -0.507676 0.0173258
0.145103 -0.382245 0.000846304
-0.0284419 -0.371071 0.0279024
0.0785933 -0.196363 -0.00988263
9.41853 0 0
9.41853 0 0
9.4123 0.295168 0.0412977
9.2368 1.05189 -0.0287856
9.25017 0.906187 0.00309446
9.36284 0.463679 0.0242201
9.2737 -0.0139066 -0.0525295
9.03069 -0.567528 -0.00362872
6.90601 -0.844895 -0.064348
3.49156 0.825511 0.05712
0.874502 0.0998773 -0.026686
1.00757 -0.57955 -0.0603222
0.753257 -0.248654 0.0129596
0.488509 -0.524378 -0.0187831
0.218306 -0.50135 0.0857858
0.261617 -0.514595 -0.131795
0.108089 -0.660774 0.0156016
0.39198 -0.579147 -0.191341
0.198092 -0.533182 -0.0214538
0.328446 -0.492595 -0.0368408
0.453436 -0.413985 -0.0339381
0.487787 -0.401001 -0.031412
0.464477 -0.393837 0.0271999
0.525669 -0.310958 -0.0113912
0.534982 -0.403103 -0.0934174
0.375205 -0.494583 0.0927816
0.440972 -0.505566 -0.0065262
0.481132 -0.432031 0.0391734
0.521372 -0.482563 0.0185012
0.422745 -0.485375 0.0131436
0.164543 -0.442371 0.088425
0.232967 -0.474884 0.0352487
0.306592 -0.479007 0.152604
0.248785 -0.477014 0.0357507
0.288192 -0.536812 0.0630338
0.27635 -0.517837 -0.0866223
0.155515 -0.477246 0.10715
0.0138648 -0.437888 -0.02787
0.0760861 -0.407082 0.0298513
0.0205851 -0.244232 -0.00868891