# vtk DataFile Version 3.0
vtk output
ASCII
DATASET UNSTRUCTURED_GRID
FIELD FieldData 2
TIME 1 1 double
0
CYCLE 1 1 int
0
POINTS 8 float
8610 -64 441.5
8610 -43 441.5
8635 -64 441.5
8635 -43 441.5
8610 -34 441.5
8610 -13 441.5
8635 -34 441.5
8635 -13 441.5

CELLS 2 10
4 2 0 1 3
4 6 4 5 7

CELL_TYPES 2
9
9

POINT_DATA 8
SCALARS NODE_ID int 1
LOOKUP_TABLE default
1
2
3
4
11
12
13
14

SCALARS Mass_Change float 1
LOOKUP_TABLE default
0
0
0
0
0
0
0
0

VECTORS Velocity float
0 0 0
0 0 0
0 0 0
0 0 0
0 0 0
0 0 0
0 0 0
0 0 0

CELL_DATA 2
SCALARS ELEMENT_ID int 1
LOOKUP_TABLE default
1
11

SCALARS PART_ID int 1
LOOKUP_TABLE default
1
2

SCALARS EROSION_STATUS int 1
LOOKUP_TABLE default
1
1

SCALARS 2DELEM_Plastic_Strain float 1
LOOKUP_TABLE default
0
0

SCALARS 2DELEM_Specific_Energy float 1
LOOKUP_TABLE default
0
0

SCALARS 2DELEM_Von_Mises float 1
LOOKUP_TABLE default
0
0

SCALARS 2DELEM_Hourglass_Energy float 1
LOOKUP_TABLE default
0
0

TENSORS 2DELEM_Strain_(upper) float
0 0 0 
0 0 0 
0 0 0 
0 0 0 
0 0 0 
0 0 0 

TENSORS 2DELEM_Strain_(lower) float
0 0 0 
0 0 0 
0 0 0 
0 0 0 
0 0 0 
0 0 0 

TENSORS 2DELEM_Strain_(layer__1)_ float
0 0 0 
0 0 0 
0 0 0 
0 0 0 
0 0 0 
0 0 0 

TENSORS 2DELEM_Strain_(layer__2)_ float
0 0 0 
0 0 0 
0 0 0 
0 0 0 
0 0 0 
0 0 0 

TENSORS 2DELEM_Strain_(layer__3)_ float
0 0 0 
0 0 0 
0 0 0 
0 0 0 
0 0 0 
0 0 0 

TENSORS 2DELEM_Strain_(layer__4)_ float
0 0 0 
0 0 0 
0 0 0 
0 0 0 
0 0 0 
0 0 0 

TENSORS 2DELEM_Strain_(layer__5)_ float
0 0 0 
0 0 0 
0 0 0 
0 0 0 
0 0 0 
0 0 0 

