# vtk DataFile Version 3.0
vtk output
ASCII
DATASET UNSTRUCTURED_GRID
FIELD FieldData 2
TIME 1 1 double
0
CYCLE 1 1 int
0
POINTS 9 float
0 -200 0
0 0 0
20 -200 0
20 0 0
0 -200 0
0 0 0
-1 0 0
0 -200 0
0 0 0

CELLS 3 11
2 4 5
2 7 8
4 0 2 3 1

CELL_TYPES 3
3
3
9

POINT_DATA 9
SCALARS NODE_ID int 1
LOOKUP_TABLE default
4
5
14
15
24
25
28
34
35

VECTORS Displacement float
0 0 0
0 0 0
0 0 0
0 0 0
0 0 0
0 0 0
0 0 0
0 0 0
0 0 0

CELL_DATA 3
SCALARS ELEMENT_ID int 1
LOOKUP_TABLE default
8
1
1

SCALARS PART_ID int 1
LOOKUP_TABLE default
2
3
1

SCALARS EROSION_STATUS int 1
LOOKUP_TABLE default
1
1
1

SCALARS 1DELEM_Plastic_Strain float 1
LOOKUP_TABLE default
0
0
0

SCALARS 1DELEM_Von_Mises float 1
LOOKUP_TABLE default
0
0
0

SCALARS 2DELEM_Plastic_Strain float 1
LOOKUP_TABLE default
0
0
0

SCALARS 2DELEM_Von_Mises float 1
LOOKUP_TABLE default
0
0
0

