# vtk DataFile Version 3.0
vtk output
ASCII
DATASET UNSTRUCTURED_GRID
FIELD FieldData 2
TIME 1 1 double
0
CYCLE 1 1 int
0
POINTS 172 float
12 2 -0.55
8 1.73 -0.48
4 1.52 -0.28
0 1.45 0
0 2.55 0
8 2.27 0.48
12 2 0.55
3.99981 2.48001 0.279988
11 -0.07 -0.55
12 0 -0.55
10 -0.14 -0.53
9 -0.21 -0.51
8 -0.27 -0.48
7 -0.33 -0.44
6 -0.39 -0.39
5 -0.44 -0.33
4 -0.48 -0.28
3 -0.51 -0.21
2 -0.53 -0.14
1 -0.55 -0.07
0 -0.55 0
0 0 0
1 0 0
2 0 0
3 0 0
4 0 0
5 0 0
6 0 0
7 0 0
8 0 0
9 0 0
10 0 0
11 0 0
12 0 0
0 0.55 0
1 0.55 0.07
2 0.53 0.14
3 0.51 0.21
4 0.48 0.28
5 0.44 0.33
6 0.39 0.39
7 0.33 0.44
8 0.27 0.48
9 0.21 0.51
10 0.14 0.53
12 0 0.55
11 0.07 0.55
10.5 -2.11 -0.54
11 -2.07 -0.55
11.5 -2.04 -0.55
12 -2 -0.55
10 -2.14 -0.53
9 -2.21 -0.51
9.5 -2.18 -0.52
8 -2.27 -0.48
8.5 -2.24 -0.49
7.5 -2.31 -0.46
7 -2.33 -0.44
6.5 -2.36 -0.41
6 -2.39 -0.39
5.5 -2.41 -0.36
5 -2.44 -0.33
4.5 -2.46 -0.31
4 -2.48 -0.28
9.5 -2.09 -0.26
10 -2.07 -0.27
10.5 -2.05 -0.27
11 -2.04 -0.27
11.5 -2.02 -0.27
12 -2 -0.28
3.5 -2.49 -0.24
8 -2.14 -0.24
8.5 -2.12 -0.25
9 -2.11 -0.25
7.5 -2.15 -0.23
3 -2.51 -0.21
6.5 -2.18 -0.21
7 -2.17 -0.22
2.5 -2.52 -0.18
6 -2.19 -0.19
5 -2.22 -0.17
5.5 -2.21 -0.18
2 -2.53 -0.14
4 -2.24 -0.14
4.5 -2.23 -0.15
1.5 -2.54 -0.11
3 -2.25 -0.11
3.5 -2.25 -0.12
2.5 -2.26 -0.09
1 -2.55 -0.07
2 -2.27 -0.07
0.5 -2.55 -0.04
1 -2.27 -0.04
1.5 -2.27 -0.05
0.5 -2.27 -0.02
0 -2.55 0
0 -2.28 0
0 -2 0
0.5 -2 0
1 -2 0
1.5 -2 0
2 -2 0
2.5 -2 0
3 -2 0
3.5 -2 0
4 -2 0
4.5 -2 0
5 -2 0
5.5 -2 0
6 -2 0
6.5 -2 0
7 -2 0
7.5 -2 0
8 -2 0
8.5 -2 0
9 -2 0
9.5 -2 0
10 -2 0
10.5 -2 0
11 -2 0
11.5 -2 0
12 -2 0
0 -1.72 0
0 -1.45 0
0.5 -1.73 0.02
1 -1.73 0.04
1.5 -1.73 0.05
0.5 -1.45 0.04
2 -1.73 0.07
1 -1.45 0.07
2.5 -1.74 0.09
3 -1.75 0.11
3.5 -1.75 0.12
1.5 -1.46 0.11
4 -1.76 0.14
4.5 -1.77 0.15
2 -1.47 0.14
5 -1.78 0.17
6 -1.81 0.19
5.5 -1.79 0.18
2.5 -1.48 0.18
6.5 -1.82 0.21
3 -1.49 0.21
7.5 -1.85 0.23
7 -1.83 0.22
8.5 -1.88 0.25
9 -1.89 0.25
8 -1.86 0.24
3.5 -1.51 0.24
12 -2 0.28
11.5 -1.98 0.27
10.5 -1.95 0.27
11 -1.96 0.27
10 -1.93 0.27
9.5 -1.91 0.26
4 -1.52 0.28
4.5 -1.54 0.31
5 -1.56 0.33
5.5 -1.59 0.36
6 -1.61 0.39
6.5 -1.64 0.41
7 -1.67 0.44
7.5 -1.69 0.46
8.5 -1.76 0.49
8 -1.73 0.48
10 -1.86 0.53
9.5 -1.82 0.52
9 -1.79 0.51
12 -2 0.55
11.5 -1.96 0.55
11 -1.93 0.55
10.5 -1.89 0.54

CELLS 123 615
4 3 2 7 4
4 2 1 5 7
4 1 0 6 5
4 8 9 33 32
4 11 10 31 30
4 10 8 32 31
4 12 11 30 29
4 13 12 29 28
4 14 13 28 27
4 15 14 27 26
4 16 15 26 25
4 17 16 25 24
4 18 17 24 23
4 19 18 23 22
4 20 19 22 21
4 21 22 35 34
4 22 23 36 35
4 23 24 37 36
4 24 25 38 37
4 25 26 39 38
4 26 27 40 39
4 28 27 40 41
4 29 28 41 42
4 30 29 42 43
4 31 30 43 44
4 33 32 46 45
4 32 31 44 46
4 47 48 67 66
4 48 49 68 67
4 49 50 69 68
4 55 52 73 72
4 54 55 72 71
4 56 54 71 74
4 65 66 118 117
4 66 67 119 118
4 67 68 120 119
4 68 69 121 120
4 74 71 113 112
4 71 72 114 113
4 72 73 115 114
4 73 64 116 115
4 64 65 117 116
4 114 113 147 145
4 120 119 152 150
4 115 114 145 146
4 121 120 150 149
4 119 118 151 152
4 116 115 146 154
4 117 116 154 153
4 118 117 153 151
4 146 145 163 167
4 145 147 164 163
4 153 154 166 165
4 154 146 167 166
4 149 150 169 168
4 150 152 170 169
4 152 151 171 170
4 151 153 165 171
4 53 51 65 64
4 51 47 66 65
4 52 53 64 73
4 75 70 87 86
4 78 75 86 88
4 82 78 88 90
4 85 82 90 93
4 89 85 93 92
4 87 83 105 104
4 91 89 92 94
4 90 88 102 101
4 88 86 103 102
4 86 87 104 103
4 92 93 100 99
4 93 90 101 100
4 95 91 94 96
4 96 94 98 97
4 94 92 99 98
4 97 98 124 122
4 98 99 125 124
4 99 100 126 125
4 123 122 124 127
4 100 101 128 126
4 101 102 130 128
4 102 103 131 130
4 125 124 127 129
4 103 104 132 131
4 104 105 134 132
4 126 125 129 133
4 128 126 133 136
4 130 128 136 140
4 131 130 140 142
4 132 131 142 148
4 134 132 148 155
4 57 56 74 77
4 58 57 77 76
4 59 58 76 79
4 60 59 79 81
4 61 60 81 80
4 62 61 80 84
4 63 62 84 83
4 70 63 83 87
4 77 74 112 111
4 79 76 110 109
4 76 77 111 110
4 84 80 107 106
4 80 81 108 107
4 81 79 109 108
4 83 84 106 105
4 105 106 135 134
4 106 107 137 135
4 107 108 139 137
4 108 109 138 139
4 110 109 138 141
4 113 112 143 147
4 111 110 141 144
4 112 111 144 143
4 135 134 155 156
4 137 135 156 157
4 139 137 157 158
4 138 139 158 159
4 141 138 159 160
4 144 141 160 161
4 143 144 161 162
4 147 143 162 164

CELL_TYPES 123
9
9
9
9
9
9
9
9
9
9
9
9
9
9
9
9
9
9
9
9
9
9
9
9
9
9
9
9
9
9
9
9
9
9
9
9
9
9
9
9
9
9
9
9
9
9
9
9
9
9
9
9
9
9
9
9
9
9
9
9
9
9
9
9
9
9
9
9
9
9
9
9
9
9
9
9
9
9
9
9
9
9
9
9
9
9
9
9
9
9
9
9
9
9
9
9
9
9
9
9
9
9
9
9
9
9
9
9
9
9
9
9
9
9
9
9
9
9
9
9
9
9
9

POINT_DATA 172
SCALARS NODE_ID int 1
LOOKUP_TABLE default
2
5
9
13
27
35
38
40
41
42
43
44
45
46
47
48
49
50
51
52
53
54
55
56
57
58
59
60
61
62
63
64
65
66
67
68
69
70
71
72
73
74
75
76
77
78
79
159
160
161
162
163
164
165
166
167
168
169
170
171
172
173
174
175
176
177
178
179
180
181
182
183
184
185
186
187
188
189
190
191
192
193
194
195
196
197
198
199
200
201
202
203
204
205
206
207
208
209
210
211
212
213
214
215
216
217
218
219
220
221
222
223
224
225
226
227
228
229
230
231
232
233
234
235
236
237
238
239
240
241
242
243
244
245
246
247
248
249
250
251
252
253
254
255
256
257
258
259
260
261
262
263
264
265
266
267
268
269
270
271
272
273
274
275
276
277
278
279
280
281
282
283

CELL_DATA 123
SCALARS ELEMENT_ID int 1
LOOKUP_TABLE default
25
26
27
28
29
30
31
32
33
34
35
36
37
38
39
40
41
42
43
44
45
46
47
48
49
50
51
54
55
56
57
59
60
71
72
73
74
77
78
79
80
81
119
122
123
124
125
126
127
128
140
141
142
143
144
145
146
147
52
53
58
69
70
75
84
88
89
91
92
93
94
95
96
97
98
99
100
101
102
103
104
105
106
107
108
109
111
116
121
129
130
131
61
62
63
64
65
66
67
68
76
82
83
85
86
87
90
110
112
113
114
115
117
118
120
132
133
134
135
136
137
138
139

SCALARS PART_ID int 1
LOOKUP_TABLE default
1
1
1
2
2
2
2
2
2
2
2
2
2
2
2
2
2
2
2
2
2
2
2
2
2
2
2
3
3
3
3
3
3
3
3
3
3
3
3
3
3
3
3
3
3
3
3
3
3
3
3
3
3
3
3
3
3
3
3
3
3
3
3
3
3
3
3
3
3
3
3
3
3
3
3
3
3
3
3
3
3
3
3
3
3
3
3
3
3
3
3
3
3
3
3
3
3
3
3
3
3
3
3
3
3
3
3
3
3
3
3
3
3
3
3
3
3
3
3
3
3
3
3

SCALARS EROSION_STATUS int 1
LOOKUP_TABLE default
1
1
1
1
1
1
1
1
1
1
1
1
1
1
1
1
1
1
1
1
1
1
1
1
1
1
1
1
1
1
1
1
1
1
1
1
1
1
1
1
1
1
1
1
1
1
1
1
1
1
1
1
1
1
1
1
1
1
1
1
1
1
1
1
1
1
1
1
1
1
1
1
1
1
1
1
1
1
1
1
1
1
1
1
1
1
1
1
1
1
1
1
1
1
1
1
1
1
1
1
1
1
1
1
1
1
1
1
1
1
1
1
1
1
1
1
1
1
1
1
1
1
1

