# vtk DataFile Version 3.0
vtk output
ASCII
DATASET UNSTRUCTURED_GRID
FIELD FieldData 2
TIME 1 1 double
0.015
CYCLE 1 1 int
0
POINTS 786 float
-0.05 119 1.755
171.71 119 1.755
85.195 100 38
85.195 138 38
-0.05 100 1.755
-0.05 138 1.755
79.4164 100 1.755
85.195 100 7.56765
85.195 138 7.5677
79.4165 138 1.755
85.195 132.571 38
85.195 127.143 38
85.195 121.714 38
85.195 116.286 38
85.195 110.857 38
85.195 105.429 38
85.195 138 32.928
85.195 132.571 32.9279
85.195 127.143 32.9279
85.195 121.714 32.9279
85.195 116.286 32.9279
85.195 110.857 32.9279
85.195 105.429 32.9279
85.195 100 32.9279
85.195 138 27.8559
85.195 132.571 27.8559
85.195 127.143 27.8559
85.195 121.714 27.8559
85.195 116.286 27.8559
85.195 110.857 27.8559
85.195 105.429 27.8559
85.195 100 27.8559
85.195 138 22.7838
85.195 132.571 22.7838
85.195 127.143 22.7838
85.195 121.714 22.7838
85.195 116.286 22.7838
85.195 110.857 22.7838
85.195 105.429 22.7838
85.195 100 22.7838
85.195 138 17.7118
85.195 132.571 17.7118
85.195 127.143 17.7118
85.195 121.714 17.7118
85.195 116.286 17.7118
85.195 110.857 17.7118
85.195 105.429 17.7118
85.195 100 17.7118
85.195 138 12.6397
85.195 132.571 12.6397
85.195 127.143 12.6397
85.195 121.714 12.6397
85.195 116.286 12.6397
85.195 110.857 12.6397
85.195 105.429 12.6397
85.195 100 12.6397
85.195 132.571 7.56769
85.195 127.143 7.56769
85.195 121.714 7.56768
85.195 116.286 7.56767
85.195 110.857 7.56766
85.195 105.429 7.56766
84.681 138 2.26903
84.681 132.571 2.26903
84.681 127.143 2.26902
84.681 121.714 2.26902
84.6809 116.286 2.26901
84.6809 110.857 2.26901
84.6809 105.429 2.26901
84.6809 100 2.269
79.4165 132.571 1.755
79.4165 127.143 1.755
79.4165 121.714 1.755
79.4164 116.286 1.755
79.4164 110.857 1.755
79.4164 105.429 1.755
74.1187 138 1.755
74.1187 132.571 1.755
74.1187 127.143 1.755
74.1187 121.714 1.755
74.1187 116.286 1.755
74.1187 110.857 1.755
74.1187 105.429 1.755
74.1186 100 1.755
68.821 138 1.755
68.821 132.571 1.755
68.8209 127.143 1.755
68.8209 121.714 1.755
68.8209 116.286 1.755
68.8209 110.857 1.755
68.8209 105.429 1.755
68.8209 100 1.755
63.5232 138 1.755
63.5232 132.571 1.755
63.5232 127.143 1.755
63.5232 121.714 1.755
63.5232 116.286 1.755
63.5231 110.857 1.755
63.5231 105.429 1.755
63.5231 100 1.755
58.2254 138 1.755
58.2254 132.571 1.755
58.2254 127.143 1.755
58.2254 121.714 1.755
58.2254 116.286 1.755
58.2254 110.857 1.755
58.2254 105.429 1.755
58.2254 100 1.755
52.9277 138 1.755
52.9277 132.571 1.755
52.9276 127.143 1.755
52.9276 121.714 1.755
52.9276 116.286 1.755
52.9276 110.857 1.755
52.9276 105.429 1.755
52.9276 100 1.755
47.6299 138 1.755
47.6299 132.571 1.755
47.6299 127.143 1.755
47.6299 121.714 1.755
47.6299 116.286 1.755
47.6299 110.857 1.755
47.6298 105.429 1.755
47.6298 100 1.755
42.3321 138 1.755
42.3321 132.571 1.755
42.3321 127.143 1.755
42.3321 121.714 1.755
42.3321 116.286 1.755
42.3321 110.857 1.755
42.3321 105.429 1.755
42.3321 100 1.755
37.0344 138 1.755
37.0344 132.571 1.755
37.0344 127.143 1.755
37.0343 121.714 1.755
37.0343 116.286 1.755
37.0343 110.857 1.755
37.0343 105.429 1.755
37.0343 100 1.755
31.7366 138 1.755
31.7366 132.571 1.755
31.7366 127.143 1.755
31.7366 121.714 1.755
31.7366 116.286 1.755
31.7366 110.857 1.755
31.7366 105.429 1.755
31.7366 100 1.755
26.4388 138 1.755
26.4388 132.571 1.755
26.4388 127.143 1.755
26.4388 121.714 1.755
26.4388 116.286 1.755
26.4388 110.857 1.755
26.4388 105.429 1.755
26.4388 100 1.755
21.1411 138 1.755
21.1411 132.571 1.755
21.1411 127.143 1.755
21.1411 121.714 1.755
21.1411 116.286 1.755
21.141 110.857 1.755
21.141 105.429 1.755
21.141 100 1.755
15.8433 138 1.755
15.8433 132.571 1.755
15.8433 127.143 1.755
15.8433 121.714 1.755
15.8433 116.286 1.755
15.8433 110.857 1.755
15.8433 105.429 1.755
15.8433 100 1.755
10.5455 138 1.755
10.5455 132.571 1.755
10.5455 127.143 1.755
10.5455 121.714 1.755
10.5455 116.286 1.755
10.5455 110.857 1.755
10.5455 105.429 1.755
10.5455 100 1.755
5.24777 138 1.755
5.24777 132.571 1.755
5.24776 127.143 1.755
5.24776 121.714 1.755
5.24776 116.286 1.755
5.24776 110.857 1.755
5.24776 105.429 1.755
5.24776 100 1.755
-0.05 132.571 1.755
-0.05 127.143 1.755
-0.05 121.714 1.755
-0.05 116.286 1.755
-0.05 110.857 1.755
-0.05 105.429 1.755
86.465 138 38
86.465 100 38
171.71 138 1.755
171.71 100 1.755
92.2436 138 1.755
86.465 138 7.56765
86.465 100 7.5677
92.2435 100 1.755
86.465 105.429 38
86.465 110.857 38
86.465 116.286 38
86.465 121.714 38
86.465 127.143 38
86.465 132.571 38
86.465 100 32.928
86.465 105.429 32.9279
86.465 110.857 32.9279
86.465 116.286 32.9279
86.465 121.714 32.9279
86.465 127.143 32.9279
86.465 132.571 32.9279
86.465 138 32.9279
86.465 100 27.8559
86.465 105.429 27.8559
86.465 110.857 27.8559
86.465 116.286 27.8559
86.465 121.714 27.8559
86.465 127.143 27.8559
86.465 132.571 27.8559
86.465 138 27.8559
86.465 100 22.7838
86.465 105.429 22.7838
86.465 110.857 22.7838
86.465 116.286 22.7838
86.465 121.714 22.7838
86.465 127.143 22.7838
86.465 132.571 22.7838
86.465 138 22.7838
86.465 100 17.7118
86.465 105.429 17.7118
86.465 110.857 17.7118
86.465 116.286 17.7118
86.465 121.714 17.7118
86.465 127.143 17.7118
86.465 132.571 17.7118
86.465 138 17.7118
86.465 100 12.6397
86.465 105.429 12.6397
86.465 110.857 12.6397
86.465 116.286 12.6397
86.465 121.714 12.6397
86.465 127.143 12.6397
86.465 132.571 12.6397
86.465 138 12.6397
86.465 105.429 7.56769
86.465 110.857 7.56769
86.465 116.286 7.56768
86.465 121.714 7.56767
86.465 127.143 7.56766
86.465 132.571 7.56766
86.979 100 2.26903
86.979 105.429 2.26903
86.979 110.857 2.26902
86.9791 116.286 2.26902
86.9791 121.714 2.26901
86.9791 127.143 2.26901
86.9791 132.571 2.26901
86.9791 138 2.269
92.2435 105.429 1.755
92.2435 110.857 1.755
92.2436 116.286 1.755
92.2436 121.714 1.755
92.2436 127.143 1.755
92.2436 132.571 1.755
97.5413 100 1.755
97.5413 105.429 1.755
97.5413 110.857 1.755
97.5413 116.286 1.755
97.5413 121.714 1.755
97.5413 127.143 1.755
97.5414 132.571 1.755
97.5414 138 1.755
102.839 100 1.755
102.839 105.429 1.755
102.839 110.857 1.755
102.839 116.286 1.755
102.839 121.714 1.755
102.839 127.143 1.755
102.839 132.571 1.755
102.839 138 1.755
108.137 100 1.755
108.137 105.429 1.755
108.137 110.857 1.755
108.137 116.286 1.755
108.137 121.714 1.755
108.137 127.143 1.755
108.137 132.571 1.755
108.137 138 1.755
113.435 100 1.755
113.435 105.429 1.755
113.435 110.857 1.755
113.435 116.286 1.755
113.435 121.714 1.755
113.435 127.143 1.755
113.435 132.571 1.755
113.435 138 1.755
118.732 100 1.755
118.732 105.429 1.755
118.732 110.857 1.755
118.732 116.286 1.755
118.732 121.714 1.755
118.732 127.143 1.755
118.732 132.571 1.755
118.732 138 1.755
124.03 100 1.755
124.03 105.429 1.755
124.03 110.857 1.755
124.03 116.286 1.755
124.03 121.714 1.755
124.03 127.143 1.755
124.03 132.571 1.755
124.03 138 1.755
129.328 100 1.755
129.328 105.429 1.755
129.328 110.857 1.755
129.328 116.286 1.755
129.328 121.714 1.755
129.328 127.143 1.755
129.328 132.571 1.755
129.328 138 1.755
134.626 100 1.755
134.626 105.429 1.755
134.626 110.857 1.755
134.626 116.286 1.755
134.626 121.714 1.755
134.626 127.143 1.755
134.626 132.571 1.755
134.626 138 1.755
139.923 100 1.755
139.923 105.429 1.755
139.923 110.857 1.755
139.923 116.286 1.755
139.923 121.714 1.755
139.923 127.143 1.755
139.923 132.571 1.755
139.923 138 1.755
145.221 100 1.755
145.221 105.429 1.755
145.221 110.857 1.755
145.221 116.286 1.755
145.221 121.714 1.755
145.221 127.143 1.755
145.221 132.571 1.755
145.221 138 1.755
150.519 100 1.755
150.519 105.429 1.755
150.519 110.857 1.755
150.519 116.286 1.755
150.519 121.714 1.755
150.519 127.143 1.755
150.519 132.571 1.755
150.519 138 1.755
155.817 100 1.755
155.817 105.429 1.755
155.817 110.857 1.755
155.817 116.286 1.755
155.817 121.714 1.755
155.817 127.143 1.755
155.817 132.571 1.755
155.817 138 1.755
161.114 100 1.755
161.114 105.429 1.755
161.114 110.857 1.755
161.114 116.286 1.755
161.114 121.714 1.755
161.114 127.143 1.755
161.114 132.571 1.755
161.114 138 1.755
166.412 100 1.755
166.412 105.429 1.755
166.412 110.857 1.755
166.412 116.286 1.755
166.412 121.714 1.755
166.412 127.143 1.755
166.412 132.571 1.755
166.412 138 1.755
171.71 105.429 1.755
171.71 110.857 1.755
171.71 116.286 1.755
171.71 121.714 1.755
171.71 127.143 1.755
171.71 132.571 1.755
-0.05 -81 1.755
186.71 -81 1.755
85.9687 -99.9998 28.2208
85.9663 -61.9996 28.2194
-0.05 -100 1.755
-0.05 -62 1.755
79.2525 -99.9967 -2.44578
87.4848 -100.001 0.473245
87.485 -61.9995 0.472416
79.2525 -62.0035 -2.44663
85.9658 -67.4282 28.2193
85.9654 -72.8568 28.2194
85.9655 -78.2854 28.2196
85.9659 -83.714 28.2198
85.9665 -89.1426 28.22
85.9676 -94.5712 28.2204
88.0256 -61.9998 23.5841
88.0245 -67.4283 23.5839
88.0244 -72.8569 23.584
88.0244 -78.2855 23.5842
88.0247 -83.714 23.5844
88.0253 -89.1426 23.5845
88.026 -94.5712 23.5849
88.0276 -99.9997 23.5853
90.4901 -61.9999 18.0348
90.49 -67.4285 18.0348
90.4885 -72.8571 18.0345
90.4896 -78.2856 18.035
90.4898 -83.714 18.0352
90.4892 -89.1425 18.035
90.4911 -94.571 18.0355
90.4917 -99.9996 18.0359
92.5123 -62.0001 13.3828
92.5066 -67.4286 13.3813
92.5098 -72.8573 13.3826
92.5083 -78.2856 13.3821
92.5084 -83.714 13.3822
92.5101 -89.1423 13.3829
92.5072 -94.5709 13.3818
92.5131 -99.9995 13.3835
92.1862 -62.0018 8.31632
92.1691 -67.4297 8.32358
92.1734 -72.8578 8.32038
92.1706 -78.2859 8.32139
92.1706 -83.7139 8.32149
92.1734 -89.142 8.32074
92.1691 -94.5701 8.3241
92.1862 -99.998 8.31709
90.1012 -62.0003 4.81759
90.0915 -67.4289 4.82166
90.0884 -72.8574 4.82223
90.0886 -78.2857 4.82163
90.0885 -83.7142 4.82176
90.0883 -89.1425 4.8226
90.0913 -94.571 4.82231
90.1011 -99.9996 4.81843
87.4837 -67.4279 0.471113
87.4826 -72.8566 0.470531
87.4827 -78.2856 0.469882
87.4827 -83.7145 0.469995
87.4825 -89.1435 0.470864
87.4836 -94.5722 0.471691
84.3577 -61.9966 -3.83431
84.366 -67.4261 -3.84517
84.3672 -72.8558 -3.84593
84.3695 -78.2853 -3.84865
84.3695 -83.715 -3.84854
84.3672 -89.1445 -3.84558
84.366 -94.5741 -3.84461
84.3577 -100.004 -3.83351
79.2359 -67.4296 -2.54515
[...]
POINT_DATA 786
SCALARS NODE_ID int 1
LOOKUP_TABLE default
403
404
405
406
407
408
409
410
411
412
413
414
415
416
417
418
419
420
421
422
423
424
425
426
427
428
429
430
431
432
433
434
435
436
437
438
439
440
441
442
443
444
445
446
447
448
449
450
451
452
453
454
455
456
457
458
459
460
461
462
463
464
465
466
467
468
469
470
471
472
473
474
475
476
477
478
479
480
481
482
483
484
485
486
487
488
489
490
491
492
493
494
495
496
497
498
499
500
501
502
503
504
505
506
507
508
509
510
511
512
513
514
515
516
517
518
519
520
521
522
523
524
525
526
527
528
529
530
531
532
533
534
535
536
537
538
539
540
541
542
543
544
545
546
547
548
549
550
551
552
553
554
555
556
557
558
559
560
561
562
563
564
565
566
567
568
569
570
571
572
573
574
575
576
577
578
579
580
581
582
583
584
585
586
587
588
589
590
591
592
593
594
595
596
597
598
599
600
601
602
603
604
605
606
607
608
609
610
611
612
613
614
615
616
617
618
619
620
621
622
623
624
625
626
627
628
629
630
631
632
633
634
635
636
637
638
639
640
641
642
643
644
645
646
647
648
649
650
651
652
653
654
655
656
657
658
659
660
661
662
663
664
665
666
667
668
669
670
671
672
673
674
675
676
677
678
679
680
681
682
683
684
685
686
687
688
689
690
691
692
693
694
695
696
697
698
699
700
701
702
703
704
705
706
707
708
709
710
711
712
713
714
715
716
717
718
719
720
721
722
723
724
725
726
727
728
729
730
731
732
733
734
735
736
737
738
739
740
741
742
743
744
745
746
747
748
749
750
751
752
753
754
755
756
757
758
759
760
761
762
763
764
765
766
767
768
769
770
771
772
773
774
775
776
777
778
779
780
781
782
783
784
785
786
787
788
789
790
791
792
793
794
795
796
797
798
799
800
801
802
803
804
805
806
807
808
809
810
811
812
813
814
815
816
817
818
819
820
821
822
823
824
825
826
827
828
829
830
831
832
833
834
835
836
837
838
839
840
841
842
843
844
845
846
847
848
849
850
851
852
853
854
855
856
857
858
859
860
861
862
863
864
865
866
867
868
869
870
871
872
873
874
875
876
877
878
879
880
881
882
883
884
885
886
887
888
889
890
891
892
893
894
895
896
897
898
899
900
901
902
903
904
905
906
907
908
909
910
911
912
913
914
915
916
917
918
919
920
921
922
923
924
925
926
927
928
929
930
931
932
933
934
935
936
937
938
939
940
941
942
943
944
945
946
947
948
949
950
951
952
953
954
955
956
957
958
959
960
961
962
963
964
965
966
967
968
969
970
971
972
973
974
975
976
977
978
979
980
981
982
983
984
985
986
987
988
989
990
991
992
993
994
995
996
997
998
999
1000
1001
1002
1003
1004
1005
1006
1007
1008
1009
1010
1011
1012
1013
1014
1015
1016
1017
1018
1019
1020
1021
1022
1023
1024
1025
1026
1027
1028
1029
1030
1031
1032
1033
1034
1035
1036
1037
1038
1039
1040
1041
1042
1043
1044
1045
1046
1047
1048
1049
1050
1051
1052
1053
1054
1055
1056
1057
1058
1059
1060
1061
1062
1063
1064
1065
1066
1067
1068
1069
1070
1071
1072
1073
1074
1075
1076
1077
1078
1079
1080
1081
1082
1083
1084
1085
1086
1087
1088
1089
1090
1091
1092
1093
1094
1095
1096
1097
1098
1099
1100
1101
1102
1103
1104
1105
1106
1107
1108
1109
1110
1111
1112
1113
1114
1115
1116
1117
1118
1119
1120
1121
1122
1123
1124
1125
1126
1127
1128
1129
1130
1131
1132
1133
1134
1135
1136
1137
1138
1139
1140
1141
1142
1143
1144
1145
1146
1147
1148
1149
1150
1151
1152
1153
1154
1155
1156
1157
1158
1159
1160
1161
1162
1163
1164
1165
1166
1167
1168
1169
1170
1171
1172
1173
1174
1175
1176
1177
1178
1179
1180
1181
1182
1183
1184
1185
1186
1187
1188

SCALARS Time_Step float 1
LOOKUP_TABLE default
1e+06
1e+06
1e+06
1e+06
1e+06
1e+06
1e+06
1e+06
1e+06
1e+06
1e+06
1e+06
1e+06
1e+06
1e+06
1e+06
1e+06
1e+06
1e+06
1e+06
1e+06
1e+06
1e+06
1e+06
1e+06
1e+06
1e+06
1e+06
1e+06
1e+06
1e+06
1e+06
1e+06
1e+06
1e+06
1e+06
1e+06
1e+06
1e+06
1e+06
1e+06
1e+06
1e+06
1e+06
1e+06
1e+06
1e+06
1e+06
1e+06
1e+06
1e+06
1e+06
1e+06
1e+06
1e+06
1e+06
1e+06
1e+06
1e+06
1e+06
1e+06
1e+06
1e+06
1e+06
1e+06
1e+06
1e+06
1e+06
1e+06
1e+06
1e+06
1e+06
1e+06
1e+06
1e+06
1e+06
1e+06
1e+06
1e+06
1e+06
1e+06
1e+06
1e+06
1e+06
1e+06
1e+06
1e+06
1e+06
1e+06
1e+06
1e+06
1e+06
1e+06
1e+06
1e+06
1e+06
1e+06
1e+06
1e+06
1e+06
1e+06
1e+06
1e+06
1e+06
1e+06
1e+06
1e+06
1e+06
1e+06
1e+06
1e+06
1e+06
1e+06
1e+06
1e+06
1e+06
1e+06
1e+06
1e+06
1e+06
1e+06
1e+06
1e+06
1e+06
1e+06
1e+06
1e+06
1e+06
1e+06
1e+06
1e+06
1e+06
1e+06
1e+06
1e+06
1e+06
1e+06
1e+06
1e+06
1e+06
1e+06
1e+06
1e+06
1e+06
1e+06
1e+06
1e+06
1e+06
1e+06
1e+06
1e+06
1e+06
1e+06
1e+06
1e+06
1e+06
1e+06
1e+06
1e+06
1e+06
1e+06
1e+06
1e+06
1e+06
1e+06
1e+06
1e+06
1e+06
1e+06
1e+06
1e+06
1e+06
1e+06
1e+06
1e+06
1e+06
1e+06
1e+06
1e+06
1e+06
1e+06
1e+06
1e+06
1e+06
1e+06
1e+06
1e+06
1e+06
1e+06
1e+06
1e+06
1e+06
1e+06
1e+06
1e+06
1e+06
1e+06
1e+06
1e+06
1e+06
1e+06
1e+06
1e+06
1e+06
1e+06
1e+06
1e+06
1e+06
1e+06
1e+06
1e+06
1e+06
1e+06
1e+06
1e+06
1e+06
1e+06
1e+06
1e+06
1e+06
1e+06
1e+06
1e+06
1e+06
1e+06
1e+06
1e+06
1e+06
1e+06
1e+06
1e+06
1e+06
1e+06
1e+06
1e+06
1e+06
1e+06
1e+06
1e+06
1e+06
1e+06
1e+06
1e+06
1e+06
1e+06
1e+06
1e+06
1e+06
1e+06
1e+06
1e+06
1e+06
1e+06
1e+06
1e+06
1e+06
1e+06
1e+06
1e+06
1e+06
1e+06
1e+06
1e+06
1e+06
1e+06
1e+06
1e+06
1e+06
1e+06
1e+06
1e+06
1e+06
1e+06
1e+06
1e+06
1e+06
1e+06
1e+06
1e+06
1e+06
1e+06
1e+06
1e+06
1e+06
1e+06
1e+06
1e+06
1e+06
1e+06
1e+06
1e+06
1e+06
1e+06
1e+06
1e+06
1e+06
1e+06
1e+06
1e+06
1e+06
1e+06
1e+06
1e+06
1e+06
1e+06
1e+06
1e+06
1e+06
1e+06
1e+06
1e+06
1e+06
1e+06
1e+06
1e+06
1e+06
1e+06
1e+06
1e+06
1e+06
1e+06
1e+06
1e+06
1e+06
1e+06
1e+06
1e+06
1e+06
1e+06
1e+06
1e+06
1e+06
1e+06
1e+06
1e+06
1e+06
1e+06
1e+06
1e+06
1e+06
1e+06
1e+06
1e+06
1e+06
1e+06
1e+06
1e+06
1e+06
1e+06
1e+06
1e+06
1e+06
1e+06
1e+06
1e+06
1e+06
1e+06
1e+06
1e+06
1e+06
1e+06
1e+06
1e+06
1e+06
1e+06
1e+06
1e+06
1e+06
1e+06
1e+06
1e+06
1e+06
1e+06
1e+06
1e+06
1e+06
1e+06
1e+06
1e+06
1e+06
1e+06
1e+06
1e+06
1e+06
1e+06
1e+06
3.00034e-07
3.00042e-07
5.89228e-07
5.89228e-07
2.53578e+06
2.53578e+06
6.05887e-07
5.98627e-07
5.98628e-07
6.05887e-07
5.89229e-07
5.89228e-07
5.89229e-07
5.89229e-07
5.89228e-07
5.89229e-07
6.15154e-07
6.15153e-07
6.15155e-07
6.15153e-07
6.15153e-07
6.15154e-07
6.15153e-07
6.15155e-07
4.48738e-07
4.38594e-07
4.29105e-07
4.29103e-07
4.2911e-07
4.29104e-07
4.38624e-07
4.4882e-07
4.32112e-07
4.22306e-07
4.1314e-07
4.13151e-07
4.13158e-07
4.13139e-07
4.22335e-07
4.32191e-07
5.45113e-07
5.45062e-07
5.45107e-07
5.45136e-07
5.45136e-07
5.45107e-07
5.45063e-07
5.45114e-07
5.45119e-07
5.45123e-07
5.45132e-07
5.4514e-07
5.45141e-07
5.45133e-07
5.45124e-07
5.4512e-07
5.98639e-07
5.98666e-07
5.98667e-07
5.98667e-07
5.98666e-07
5.98639e-07
6.06679e-07
6.06812e-07
6.06789e-07
6.06828e-07
6.06828e-07
6.06789e-07
6.06812e-07
6.06679e-07
6.05821e-07
6.05899e-07
6.05893e-07
6.05893e-07
6.05898e-07
6.05821e-07
6.06198e-07
6.06201e-07
6.06197e-07
6.0622e-07
6.06219e-07
6.06196e-07
6.062e-07
6.06196e-07
6.06208e-07
6.06203e-07
6.06205e-07
6.06204e-07
6.06204e-07
6.06204e-07
6.06202e-07
6.06207e-07
6.06205e-07
6.06206e-07
6.06209e-07
6.06203e-07
6.06203e-07
6.06209e-07
6.06205e-07
6.06205e-07
6.06202e-07
6.06202e-07
6.06203e-07
6.06204e-07
6.06204e-07
6.06204e-07
6.06202e-07
6.06202e-07
6.06201e-07
6.062e-07
6.062e-07
6.06206e-07
6.06206e-07
6.06201e-07
6.062e-07
6.06201e-07
6.06201e-07
6.062e-07
6.06201e-07
6.06205e-07
6.06206e-07
6.06201e-07
6.062e-07
6.06201e-07
6.06202e-07
6.06201e-07
6.06202e-07
6.06206e-07
6.06206e-07
6.06202e-07
6.06202e-07
6.06202e-07
6.06204e-07
6.06203e-07
6.06203e-07
6.06206e-07
6.06207e-07
6.06203e-07
6.06203e-07
6.06204e-07
6.06205e-07
6.06204e-07
6.06204e-07
6.06207e-07
6.06207e-07
6.06205e-07
6.06204e-07
6.06205e-07
6.06206e-07
6.06206e-07
6.06206e-07
6.06208e-07
6.06208e-07
6.06206e-07
6.06205e-07
6.06206e-07
6.06207e-07
6.06206e-07
6.06206e-07
6.06208e-07
6.06208e-07
6.06206e-07
6.06206e-07
6.06207e-07
6.06208e-07
6.06207e-07
6.06207e-07
6.06208e-07
6.06208e-07
6.06207e-07
6.06207e-07
6.06208e-07
6.06209e-07
6.06208e-07
6.06207e-07
6.06208e-07
6.06208e-07
6.06207e-07
6.06208e-07
6.06209e-07
6.06204e-07
6.06206e-07
6.06206e-07
6.06207e-07
6.06207e-07
6.06206e-07
6.06206e-07
6.06204e-07
3.58614e+06
3.58614e+06
3.58614e+06
3.58614e+06
3.58614e+06
3.58614e+06
5.89232e-07
5.89231e-07
2.53578e+06
2.53578e+06
6.05881e-07
5.98637e-07
5.98637e-07
6.05881e-07
5.89231e-07
5.89231e-07
5.89231e-07
5.89231e-07
5.89232e-07
5.89231e-07
5.45132e-07
5.45131e-07
5.45131e-07
5.45131e-07
5.45131e-07
5.45131e-07
5.45132e-07
5.45132e-07
5.45129e-07
5.4513e-07
5.4513e-07
5.45131e-07
5.45131e-07
5.45131e-07
5.45131e-07
5.45131e-07
4.32199e-07
4.22353e-07
4.1316e-07
4.13163e-07
4.13158e-07
4.13157e-07
4.22323e-07
4.32128e-07
4.48817e-07
4.38628e-07
4.29111e-07
4.29115e-07
4.29109e-07
4.29108e-07
4.38596e-07
4.48742e-07
6.15148e-07
6.15148e-07
6.15156e-07
6.15159e-07
6.15159e-07
6.15157e-07
6.15148e-07
6.15149e-07
5.9864e-07
5.98668e-07
5.98671e-07
5.98671e-07
5.98668e-07
5.98639e-07
6.06716e-07
6.06816e-07
6.06801e-07
6.06843e-07
6.06843e-07
6.06801e-07
6.06816e-07
6.06716e-07
6.05841e-07
6.059e-07
6.05897e-07
6.05896e-07
6.059e-07
6.05841e-07
6.062e-07
6.06204e-07
6.062e-07
6.06217e-07
6.06216e-07
6.06199e-07
6.06203e-07
6.06199e-07
6.0621e-07
6.06203e-07
6.06206e-07
6.06207e-07
6.06207e-07
6.06205e-07
6.06202e-07
6.06209e-07
6.06207e-07
6.06206e-07
6.06209e-07
6.06206e-07
6.06205e-07
6.06209e-07
6.06206e-07
6.06206e-07
6.06203e-07
6.06203e-07
6.06205e-07
6.06206e-07
6.06206e-07
6.06206e-07
6.06204e-07
6.06203e-07
6.06202e-07
6.06201e-07
6.06202e-07
6.06207e-07
6.06207e-07
6.06202e-07
6.06201e-07
6.06202e-07
6.06202e-07
6.06201e-07
6.06202e-07
6.06206e-07
6.06206e-07
6.06202e-07
6.06201e-07
6.06202e-07
6.06203e-07
6.06202e-07
6.06202e-07
6.06206e-07
6.06206e-07
6.06203e-07
6.06202e-07
6.06203e-07
6.06204e-07
6.06203e-07
6.06203e-07
6.06207e-07
6.06207e-07
6.06204e-07
6.06203e-07
6.06204e-07
6.06205e-07
6.06205e-07
6.06205e-07
6.06207e-07
6.06207e-07
6.06205e-07
6.06205e-07
6.06205e-07
6.06206e-07
6.06206e-07
6.06206e-07
6.06208e-07
6.06208e-07
6.06206e-07
6.06206e-07
6.06206e-07
6.06207e-07
6.06206e-07
6.06207e-07
6.06208e-07
6.06208e-07
6.06207e-07
6.06206e-07
6.06207e-07
6.06208e-07
6.06207e-07
6.06207e-07
6.06208e-07
6.06208e-07
6.06207e-07
6.06207e-07
6.06208e-07
6.06209e-07
6.06208e-07
6.06207e-07
6.06208e-07
6.06208e-07
6.06207e-07
6.06208e-07
6.06209e-07
6.06204e-07
6.06207e-07
6.06207e-07
6.06207e-07
6.06207e-07
6.06207e-07
6.06206e-07
6.06204e-07
3.58614e+06
3.58614e+06
3.58614e+06
3.58614e+06
3.58614e+06
3.58614e+06
1e+06
1e+06
1e+06
1e+06
1e+06
1e+06
1e+06
1e+06
1e+06
1e+06
1e+06
1e+06
1e+06
1e+06

SCALARS Mass_Change float 1
LOOKUP_TABLE default
0
0
0
0
0
0
0
0
0
0
0
0
0
0
0
0
0
0
0
0
0
0
0
0
0
0
0
0
0
0
0
0
0
0
0
0
0
0
0
0
0
0
0
0
0
0
0
0
0
0
0
0
0
0
0
0
0
0
0
0
0
0
0
0
0
0
0
0
0
0
0
0
0
0
0
0
0
0
0
0
0
0
0
0
0
0
0
0
0
0
0
0
0
0
0
0
0
0
0
0
0
0
0
0
0
0
0
0
0
0
0
0
0
0
0
0
0
0
0
0
0
0
0
0
0
0
0
0
0
0
0
0
0
0
0
0
0
0
0
0
0
0
0
0
0
0
0
0
0
0
0
0
0
0
0
0
0
0
0
0
0
0
0
0
0
0
0
0
0
0
0
0
0
0
0
0
0
0
0
0
0
0
0
0
0
0
0
0
0
0
0
0
0
0
0
0
0
0
0
0
0
0
0
0
0
0
0
0
0
0
0
0
0
0
0
0
0
0
0
0
0
0
0
0
0
0
0
0
0
0
0
0
0
0
0
0
0
0
0
0
0
0
0
0
0
0
0
0
0
0
0
0
0
0
0
0
0
0
0
0
0
0
0
0
0
0
0
0
0
0
0
0
0
0
0
0
0
0
0
0
0
0
0
0
0
0
0
0
0
0
0
0
0
0
0
0
0
0
0
0
0
0
0
0
0
0
0
0
0
0
0
0
0
0
0
0
0
0
0
0
0
0
0
0
0
0
0
0
0
0
0
0
0
0
0
0
0
0
0
0
0
0
0
0
0
0
0
0
0
0
0
0
0
0
0
0
0
0
0
0
0
0
0
0
0
0
0
0
0
0
0
0
0
0
0
0
0
0
0
0
0
0
0
0
0
0
0
0
0
0
0
0
0
0
0
0
0
0
0
0
0
0
0
0
0
0
0
0
0
0
0
0
0
0
0
0
0
0
0
0
0
0
0
0
0
0
0
0
0
0
0
0
0
0
0
0
0
0
0
0
0
0
0
0
0
0
0
0
0
0
0
0
0
0
0
0
0
0
0
0
0
0
0
0
0
0
0
0
0
0
0
0
0
0
0
0
0
0
0
0
0
0
0
0
0
0
0
0
0
0
0
0
0
0
0
0
0
0
0
0
0
0
0
0
0
0
0
0
0
0
0
0
0
0
0
0
0
0
0
0
0
0
0
0
0
0
0
0
0
0
0
0
0
0
0
0
0
0
0
0
0
0
0
0
0
0
0
0
0
0
0
0
0
0
0
0
0
0
0
0
0
0
0
0
0
0
0
0
0
0
0
0
0
0
0
0
0
0
0
0
0
0
0
0
0
0
0
0
0
0
0
0
0
0
0
0
0
0
0
0
0
0
0
0
0
0
0
0
0
0
0
0
0
0
0
0
0
0
0
0
0
0
0
0
0
0
0
0
0
0
0
0
0
0
0
0
0
0
0
0
0
0
0
0
0
0
0
0
0
0
0
0
0
0
0
0
0
0
0
0
0
0
0
0
0
0
0
0
0
0
0
0
0
0
0
0
0
0
0
0
0
0
0
0
0
0
0
0
0
0
0
0
0
0
0
0
0
0
0
0
0
0
0
0
0
0
0
0
0
0
0
0
0
0
0
0
0
0
0
0
0
0
0
0
0
0
0
0
0
0
0
0
0
0
0
0
0
0
0
0
0
0
0
0
0
0
0
0
0
0
0
0
0
0
0
0
0
0
0
0
0
0
0
0
0
0
0
0
0
0
0
0
0
0
0
0
0
0
0
0
0
0
0
0
0
0

CELL_DATA 345
SCALARS ELEMENT_ID int 1
LOOKUP_TABLE default
339
340
341
342
343
344
345
0
0
0
0
0
0
0
0
0
0
0
0
0
0
0
0
750
751
752
753
754
755
756
757
758
759
760
761
762
763
764
765
766
767
768
769
770
771
772
773
774
775
776
777
778
779
780
781
782
783
784
785
786
787
788
789
790
791
792
793
794
795
796
797
798
799
800
801
802
803
804
805
649
650
651
656
657
658
663
664
665
671
672
723
724
725
726
727
728
729
730
731
732
733
734
735
736
737
738
739
740
741
742
743
744
745
746
747
748
749
669
670
681
682
683
684
685
686
687
688
689
690
691
692
693
694
695
696
697
698
699
700
701
702
703
704
705
706
707
708
709
710
711
712
713
714
715
716
717
718
719
720
721
722
645
646
647
648
652
653
654
655
662
659
660
661
666
667
668
680
806
807
820
821
827
828
834
835
836
841
842
843
848
849
808
809
810
811
812
822
823
824
825
826
829
830
911
912
913
914
915
916
918
919
920
921
922
923
924
925
926
927
928
929
930
931
932
933
934
935
936
937
938
939
940
941
942
943
944
945
946
947
948
949
950
951
952
953
954
955
956
957
958
959
960
961
962
963
964
965
966
831
832
833
837
838
839
840
844
845
846
847
850
851
852
853
854
855
856
857
858
859
860
861
862
863
864
865
866
867
868
869
870
871
872
873
874
875
876
877
878
879
880
881
882
883
884
885
886
887
888
889
890
891
892
893
894
895
896
897
898
899
900
901
902
903
904
905
906
907
908
909
910
917
679
813
814
675
676
677
678
815
816
817
818
819
673
674

SCALARS PART_ID int 1
LOOKUP_TABLE default
11
11
11
11
11
11
11
5
5
5
6
6
6
6
6
6
6
6
0
0
0
0
0
9
9
9
9
9
9
9
9
9
9
9
9
9
9
9
9
9
9
9
9
9
9
9
9
9
9
9
9
9
9
9
9
9
9
9
9
9
9
9
9
9
9
9
9
9
9
9
9
9
9
9
9
9
9
9
9
9
9
9
9
9
9
9
9
9
9
9
9
9
9
9
9
9
9
9
9
9
9
9
9
9
9
9
9
9
9
9
9
9
9
9
9
9
9
9
9
9
9
9
9
9
9
9
9
9
9
9
9
9
9
9
9
9
9
9
9
9
9
9
9
9
9
9
9
9
9
9
9
9
9
9
9
9
9
9
9
9
9
9
9
9
9
9
9
9
9
9
9
9
9
9
9
9
9
10
10
10
10
10
10
10
10
10
10
10
10
10
10
10
10
10
10
10
10
10
10
10
10
10
10
10
10
10
10
10
10
10
10
10
10
10
10
10
10
10
10
10
10
10
10
10
10
10
10
10
10
10
10
10
10
10
10
10
10
10
10
10
10
10
10
10
10
10
10
10
10
10
10
10
10
10
10
10
10
10
10
10
10
10
10
10
10
10
10
10
10
10
10
10
10
10
10
10
10
10
10
10
10
10
10
10
10
10
10
10
10
10
10
10
10
10
10
10
10
10
10
10
10
10
10
10
10
10
10
10
10
10
10
10
10
10
10
10
10
10
10
10
10
10
10
10
10
10
10
10
10
10
10
12
12
12
12
12
12
12
12
12
12
12
12
12
12

SCALARS EROSION_STATUS int 1
LOOKUP_TABLE default
1
1
1
1
1
1
1
1
1
1
1
1
1
1
1
1
1
1
1
1
1
1
1
1
1
1
1
1
1
1
1
1
1
1
1
1
1
1
1
1
1
1
1
1
1
1
1
1
1
1
1
1
1
1
1
1
1
1
1
1
1
1
1
1
1
1
1
1
1
1
1
1
1
1
1
1
1
1
1
1
1
1
1
1
1
1
1
1
1
1
1
1
1
1
1
1
1
1
1
1
1
1
1
1
1
1
1
1
1
1
1
1
1
1
1
1
1
1
1
1
1
1
1
1
1
1
1
1
1
1
1
1
1
1
1
1
1
1
1
1
1
1
1
1
1
1
1
1
1
1
1
1
1
1
1
1
1
1
1
1
1
1
1
1
1
1
1
1
1
1
1
1
1
1
1
1
1
1
1
1
1
1
1
1
1
1
1
1
1
1
1
1
1
1
1
1
1
1
1
1
1
1
1
1
1
1
1
1
1
1
1
1
1
1
1
1
1
1
1
1
1
1
1
1
1
1
1
1
1
1
1
1
1
1
1
1
1
1
1
1
1
1
1
1
1
1
1
1
1
1
1
1
1
1
1
1
1
1
1
1
1
1
1
1
1
1
1
1
1
1
1
1
1
1
1
1
1
1
1
1
1
1
1
1
1
1
1
1
1
1
1
1
1
1
1
1
1
1
1
1
1
1
1
1
1
1
1
1
1
1
1
1
1
1
1
1
1
1
1
1
1
1
1
1
1
1
1
1
1
1
1
1
1
1
1
1
1
1
1
1
1
1
1
1
1

SCALARS 1DELEM_Plastic_Strain float 1
LOOKUP_TABLE default
0
0
0
0
0
0
0
0
0
0
0
0
0
0
0
0
0
0
0
0
0
0
0
0
0
0
0
0
0
0
0
0
0
0
0
0
0
0
0
0
0
0
0
0
0
0
0
0
0
0
0
0
0
0
0
0
0
0
0
0
0
0
0
0
0
0
0
0
0
0
0
0
0
0
0
0
0
0
0
0
0
0
0
0
0
0
0
0
0
0
0
0
0
0
0
0
0
0
0
0
0
0
0
0
0
0
0
0
0
0
0
0
0
0
0
0
0
0
0
0
0
0
0
0
0
0
0
0
0
0
0
0
0
0
0
0
0
0
0
0
0
0
0
0
0
0
0
0
0
0
0
0
0
0
0
0
0
0
0
0
0
0
0
0
0
0
0
0
0
0
0
0
0
0
0
0
0
0
0
0
0
0
0
0
0
0
0
0
0
0
0
0
0
0
0
0
0
0
0
0
0
0
0
0
0
0
0
0
0
0
0
0
0
0
0
0
0
0
0
0
0
0
0
0
0
0
0
0
0
0
0
0
0
0
0
0
0
0
0
0
0
0
0
0
0
0
0
0
0
0
0
0
0
0
0
0
0
0
0
0
0
0
0
0
0
0
0
0
0
0
0
0
0
0
0
0
0
0
0
0
0
0
0
0
0
0
0
0
0
0
0
0
0
0
0
0
0
0
0
0
0
0
0
0
0
0
0
0
0
0
0
0
0
0
0
0
0
0
0
0
0
0
0
0
0
0
0
0
0
0
0
0
0
0
0
0
0
0
0
0
0
0
0
0
0

SCALARS 1DELEM_Specific_Energy float 1
LOOKUP_TABLE default
2.86543e+06
3.85279e+06
2.47218e+06
4.05876e+06
2.65264e+06
4.22321e+06
3.40817e+06
0
0
0
0
0
0
0
0
0
0
0
0
0
0
0
0
0
0
0
0
0
0
0
0
0
0
0
0
0
0
0
0
0
0
0
0
0
0
0
0
0
0
0
0
0
0
0
0
0
0
0
0
0
0
0
0
0
0
0
0
0
0
0
0
0
0
0
0
0
0
0
0
0
0
0
0
0
0
0
0
0
0
0
0
0
0
0
0
0
0
0
0
0
0
0
0
0
0
0
0
0
0
0
0
0
0
0
0
0
0
0
0
0
0
0
0
0
0
0
0
0
0
0
0
0
0
0
0
0
0
0
0
0
0
0
0
0
0
0
0
0
0
0
0
0
0
0
0
0
0
0
0
0
0
0
0
0
0
0
0
0
0
0
0
0
0
0
0
0
0
0
0
0
0
0
0
0
0
0
0
0
0
0
0
0
0
0
0
0
0
0
0
0
0
0
0
0
0
0
0
0
0
0
0
0
0
0
0
0
0
0
0
0
0
0
0
0
0
0
0
0
0
0
0
0
0
0
0
0
0
0
0
0
0
0
0
0
0
0
0
0
0
0
0
0
0
0
0
0
0
0
0
0
0
0
0
0
0
0
0
0
0
0
0
0
0
0
0
0
0
0
0
0
0
0
0
0
0
0
0
0
0
0
0
0
0
0
0
0
0
0
0
0
0
0
0
0
0
0
0
0
0
0
0
0
0
0
0
0
0
0
0
0
0
0
0
0
0
0
0
0
0
0
0
0
0
0
0
0
0
0
0
0
0
0
0
0
0

SCALARS 1DELEM_Von_Mises float 1
LOOKUP_TABLE default
0
0
0
0
0
0
0
0
0
0
0
0
0
0
0
0
0
0
0
0
0
0
0
0
0
0
0
0
0
0
0
0
0
0
0
0
0
0
0
0
0
0
0
0
0
0
0
0
0
0
0
0
0
0
0
0
0
0
0
0
0
0
0
0
0
0
0
0
0
0
0
0
0
0
0
0
0
0
0
0
0
0
0
0
0
0
0
0
0
0
0
0
0
0
0
0
0
0
0
0
0
0
0
0
0
0
0
0
0
0
0
0
0
0
0
0
0
0
0
0
0
0
0
0
0
0
0
0
0
0
0
0
0
0
0
0
0
0
0
0
0
0
0
0
0
0
0
0
0
0
0
0
0
0
0
0
0
0
0
0
0
0
0
0
0
0
0
0
0
0
0
0
0
0
0
0
0
0
0
0
0
0
0
0
0
0
0
0
0
0
0
0
0
0
0
0
0
0
0
0
0
0
0
0
0
0
0
0
0
0
0
0
0
0
0
0
0
0
0
0
0
0
0
0
0
0
0
0
0
0
0
0
0
0
0
0
0
0
0
0
0
0
0
0
0
0
0
0
0
0
0
0
0
0
0
0
0
0
0
0
0
0
0
0
0
0
0
0
0
0
0
0
0
0
0
0
0
0
0
0
0
0
0
0
0
0
0
0
0
0
0
0
0
0
0
0
0
0
0
0
0
0
0
0
0
0
0
0
0
0
0
0
0
0
0
0
0
0
0
0
0
0
0
0
0
0
0
0
0
0
0
0
0
0
0
0
0
0
0
0
0
0
0
0
0

SCALARS 1DELEM_AMS_selection float 1
LOOKUP_TABLE default
0
0
0
0
0
0
0
0
0
0
0
0
0
0
0
0
0
0
0
0
0
0
0
0
0
0
0
0
0
0
0
0
0
0
0
0
0
0
0
0
0
0
0
0
0
0
0
0
0
0
0
0
0
0
0
0
0
0
0
0
0
0
0
0
0
0
0
0
0
0
0
0
0
0
0
0
0
0
0
0
0
0
0
0
0
0
0
0
0
0
0
0
0
0
0
0
0
0
0
0
0
0
0
0
0
0
0
0
0
0
0
0
0
0
0
0
0
0
0
0
0
0
0
0
0
0
0
0
0
0
0
0
0
0
0
0
0
0
0
0
0
0
0
0
0
0
0
0
0
0
0
0
0
0
0
0
0
0
0
0
0
0
0
0
0
0
0
0
0
0
0
0
0
0
0
0
0
0
0
0
0
0
0
0
0
0
0
0
0
0
0
0
0
0
0
0
0
0
0
0
0
0
0
0
0
0
0
0
0
0
0
0
0
0
0
0
0
0
0
0
0
0
0
0
0
0
0
0
0
0
0
0
0
0
0
0
0
0
0
0
0
0
0
0
0
0
0
0
0
0
0
0
0
0
0
0
0
0
0
0
0
0
0
0
0
0
0
0
0
0
0
0
0
0
0
0
0
0
0
0
0
0
0
0
0
0
0
0
0
0
0
0
0
0
0
0
0
0
0
0
0
0
0
0
0
0
0
0
0
0
0
0
0
0
0
0
0
0
0
0
0
0
0
0
0
0
0
0
0
0
0
0
0
0
0
0
0
0
0
0
0
0
0
0
0

SCALARS 2DELEM_Plastic_Strain float 1
LOOKUP_TABLE default
0
0
0
0
0
0
0
0
0
0
0
0
0
0
0
0
0
0
0
0
0
0
0
0
0
0
0
0
0
0
0
0
0
0
0
0
0
0
0
0
0
0
0
0
0
0
0
0
0
0
0
0
0
0
0
0
0
0
0
0
0
0
0
0
0
0
0
0
0
0
0
0
0
0
0
0
0
0
0
0
0
0
0
0
0
0
0
0
0
0
0
0
0
0
0
0
0
0
0
0
0
0
0
0
0
0
0
0
0
0
0
0
0
0
0
0
0
0
0
0
0
0
0
0
0
0
0
0
0
0
0
0
0
0
0
0
0
0
0
0
0
0
0
0
0
0
0
0
0
0
0
0
0
0
0
0
0
0
0
0
0
0
0
0
0
0
0
0
0
0
0
0
0
0
0
0
0
0
0
0
0
0
0
0
0
0
0
0
0
0
0
0
0
0
0
0
0
0
0
0
0
0
0
0
0
0
0
0
0
0
0
0
0
0
0
0
0
0
0
0
0
0
0
0
0
0
0
0
0
0
0
0
0
0
0
0
0
0
0
0
0
0
0
0
0
0
0
0
0
0
0
0
0
0
0
0
0
0
0
0
0
0
0
0
0
0
0
0
0
0
0
0
0
0
0
0
0
0
0
0
0
0
0
0
0
0
0
0
0
0
0
0
0
0
0
0
0
0
0
0
0
0
0
0
0
0
0
0
0
0
0
0
0
0
0
0
0
0
0
0
0
0
0
0
0
0
0
0
0
0
0
0
0
0
0
0
0
0
0
0
0
0
0
0
0

SCALARS 2DELEM_Specific_Energy float 1
LOOKUP_TABLE default
0
0
0
0
0
0
0
0
0
0
0
0
0
0
0
0
0
0
0
0
0
0
0
3.28568e+06
3.1924e+06
3.15384e+06
3.15306e+06
3.15577e+06
3.19505e+06
3.30579e+06
2.72508e+06
2.63457e+06
2.58813e+06
2.57061e+06
2.58919e+06
2.63667e+06
2.72298e+06
2.32533e+06
2.23677e+06
2.17434e+06
2.14998e+06
2.17491e+06
2.23628e+06
2.32188e+06
2.04605e+06
1.95893e+06
1.88446e+06
1.85944e+06
1.88416e+06
1.95906e+06
2.04739e+06
1.89788e+06
1.77647e+06
1.70539e+06
1.6692e+06
1.70376e+06
1.77531e+06
1.90111e+06
1.9447e+06
1.70886e+06
1.60802e+06
1.59146e+06
1.60673e+06
1.70733e+06
1.92447e+06
2.0471e+06
1.60784e+06
1.62018e+06
1.64659e+06
1.61787e+06
1.60412e+06
2.04186e+06
1.14172e+06
1.86082e+06
2.54114e+06
2.73188e+06
2.53956e+06
1.86266e+06
1.13732e+06
1491.12
1478.47
2222.28
11908.3
11923.7
11848.1
1.95772e+07
2.09437e+07
1.99471e+07
2.44282e+09
2.20458e+09
1.0647e+07
9.75435e+06
1.05173e+07
9.7643e+06
1.0619e+07
1.09228e+07
7.05353e+06
6.8094e+06
6.98006e+06
6.61832e+06
6.97105e+06
6.81806e+06
7.05659e+06
5.34137e+06
5.06858e+06