# vtk DataFile Version 3.0
vtk output
ASCII
DATASET UNSTRUCTURED_GRID
FIELD FieldData 2
TIME 1 1 double
0.00903665
CYCLE 1 1 int
0
POINTS 8 float
8610 -64 441.5
8610 -43 441.5
8635 -64 441.5
8635 -43 441.5
8610 -34 441.5
8610 -13 441.5
8635 -34 441.5
8635 -13 441.5

CELLS 2 10
4 2 0 1 3
4 6 4 5 7

CELL_TYPES 2
9
9

POINT_DATA 8
SCALARS NODE_ID int 1
LOOKUP_TABLE default
1
2
3
4
11
12
13
14

SCALARS Mass_Change float 1
LOOKUP_TABLE default
0
0
0
0
0
0
0
0

VECTORS Velocity float
0 0 0
0 0 0
0 0 0
0 0 0
0 0 0
0 0 0
0 0 0
0 0 0

CELL_DATA 2
SCALARS ELEMENT_ID int 1
LOOKUP_TABLE default
1
11

SCALARS PART_ID int 1
LOOKUP_TABLE default
1
2

SCALARS EROSION_STATUS int 1
LOOKUP_TABLE default
0
0

SCALARS 2DELEM_Plastic_Strain float 1
LOOKUP_TABLE default
0
0

SCALARS 2DELEM_Specific_Energy float 1
LOOKUP_TABLE default
1.20717e+14
1.62497e+14

SCALARS 2DELEM_Von_Mises float 1
LOOKUP_TABLE default
0
0

SCALARS 2DELEM_Hourglass_Energy float 1
LOOKUP_TABLE default
284206
289017

TENSORS 2DELEM_Strain_(upper) float
-0.515089 0 0 
0 0.25563 0 
0 0 0 
-0.514638 0 0 
0 0.254202 0 
0 0 0 

TENSORS 2DELEM_Strain_(lower) float
0.515089 0 0 
0 -0.25563 0 
0 0 0 
0.514638 0 0 
0 -0.254202 0 
0 0 0 

TENSORS 2DELEM_Strain_(layer__1)_ float
0.412071 0 0 
0 -0.204504 0 
0 0 0 
0.41171 0 0 
0 -0.203361 0 
0 0 0 

TENSORS 2DELEM_Strain_(layer__2)_ float
0.206036 0 0 
0 -0.102252 0 
0 0 0 
0.205855 0 0 
0 -0.101681 0 
0 0 0 

TENSORS 2DELEM_Strain_(layer__3)_ float
0 0 0 
0 0 0 
0 0 0 
0 0 0 
0 0 0 
0 0 0 

TENSORS 2DELEM_Strain_(layer__4)_ float
-0.206036 0 0 
0 0.102252 0 
0 0 0 
-0.205855 0 0 
0 0.101681 0 
0 0 0 

TENSORS 2DELEM_Strain_(layer__5)_ float
-0.412071 0 0 
0 0.204504 0 
0 0 0 
-0.41171 0 0 
0 0.203361 0 
0 0 0 

