# vtk DataFile Version 3.0
vtk output
ASCII
DATASET UNSTRUCTURED_GRID
FIELD FieldData 2
TIME 1 1 double
48.3333
CYCLE 1 1 int
0
POINTS 42 float
0 0 0
1 0 0
2 0 0
3 0 0
0 1 0
1 1 0
2 1 0
3 1 0
0 1.01 0
1.5 1.01 0
3 1.01 0
0 2.01 0
1.5 2.01 0
3 2.01 0
0 0 1
1 0 1
2 0 1
3 0 1
0 1 1
1 1 1
2 1 1
3 1 1
0 1.01 1
1.5 1.01 1
3 1.01 1
0 2.01 1
1.5 2.01 1
3 2.01 1
0 -1 0
1 -1 0
2 -1 0
3 -1 0
0 -1 1
1 -1 1
2 -1 1
3 -1 1
0 3.01 0
1.5 3.01 0
3 3.01 0
0 3.01 1
1.5 3.01 1
3 3.01 1

CELLS 10 90
8 9  10  13  12  23  24  27  26
8 8  9  12  11  22  23  26  25
8 0  1  5  4  14  15  19  18
8 1  2  6  5  15  16  20  19
8 2  3  7  6  16  17  21  20
8 28  29  1  0  32  33  15  14
8 29  30  2  1  33  34  16  15
8 30  31  3  2  34  35  17  16
8 12  26  27  13  37  40  41  38
8 11  25  26  12  36  39  40  37

CELL_TYPES 10
12
12
12
12
12
12
12
12
12
12

POINT_DATA 42
SCALARS NODE_ID int 1
LOOKUP_TABLE default
1
2
3
4
5
6
7
8
9
10
11
12
13
14
15
16
17
18
19
20
21
22
23
24
25
26
27
28
30
31
32
33
44
45
46
47
112
113
114
126
127
128

VECTORS Velocity float
0 -0.2 0
0 -0.2 0
0 -0.2 0
0 -0.2 0
0 -0.2 0
0 -0.2 0
0 -0.2 0
0 -0.2 0
0 -0.2 0
0 -0.2 0
0 -0.2 0
0 -0.2 0
0 -0.2 0
0 -0.2 0
0 -0.2 0
0 -0.2 0
0 -0.2 0
0 -0.2 0
0 -0.2 0
0 -0.2 0
0 -0.2 0
0 -0.2 0
0 -0.2 0
0 -0.2 0
0 -0.2 0
0 -0.2 0
0 -0.2 0
0 -0.2 0
0 0 0
0 0 0
0 0 0
0 0 0
0 0 0
0 0 0
0 0 0
0 0 0
0 0 0
0 0 0
0 0 0
0 0 0
0 0 0
0 0 0

CELL_DATA 10
SCALARS ELEMENT_ID int 1
LOOKUP_TABLE default
5
4
1
2
3
6
7
8
105
104

SCALARS PART_ID int 1
LOOKUP_TABLE default
1
1
2
2
2
3
3
3
100
100

SCALARS EROSION_STATUS int 1
LOOKUP_TABLE default
1
1
1
1
1
1
1
1
1
1

SCALARS 3DELEM_Density float 1
LOOKUP_TABLE default
0.500021
0.500021
0.500239
0.500239
0.500239
0.5
0.5
0.5
0.5
0.5

SCALARS 3DELEM_Pressure float 1
LOOKUP_TABLE default
-0.499979
-0.499979
-0.499761
-0.499761
-0.499761
0
0
0
0
0

