# vtk DataFile Version 3.0
vtk output
ASCII
DATASET UNSTRUCTURED_GRID
FIELD FieldData 2
TIME 1 1 double
2.00211
CYCLE 1 1 int
0
POINTS 22 float
0 0 0
0 1.0005 0
0 2.00114 0
0 3.0021 0
0 4.00355 0
0 5.00572 0
0 6.00884 0
0 7.01316 0
0 8.0189 0
0 9.02626 0
0 10.0354 0
5 0 0
5 1.0005 0
5 2.00114 0
5 3.0021 0
5 4.00355 0
5 5.00572 0
5 6.00884 0
5 7.01316 0
5 8.0189 0
5 9.02626 0
5 10.0354 0

CELLS 20 60
2 5 6
2 6 7
2 7 8
2 8 9
2 9 10
2 0 1
2 1 2
2 2 3
2 3 4
2 4 5
2 11 12
2 12 13
2 13 14
2 14 15
2 15 16
2 16 17
2 17 18
2 18 19
2 19 20
2 20 21

CELL_TYPES 20
3
3
3
3
3
3
3
3
3
3
3
3
3
3
3
3
3
3
3
3

POINT_DATA 22
SCALARS NODE_ID int 1
LOOKUP_TABLE default
1
2
3
4
5
6
7
8
9
10
11
12
13
14
15
16
17
18
19
20
21
22

VECTORS Velocity float
0 0 0
0 0.000733191 0
0 0.00153901 0
0 0.00247152 0
0 0.00354996 0
0 0.00474792 0
0 0.00599099 0
0 0.00716531 0
0 0.00813734 0
0 0.0087811 0
0 0.00900657 0
0 0 0
0 0.000733191 0
0 0.00153901 0
0 0.00247152 0
0 0.00354996 0
0 0.00474792 0
0 0.00599099 0
0 0.00716531 0
0 0.00813734 0
0 0.0087811 0
0 0.00900657 0

VECTORS Internal_Forces float
0 0.496418 0
0 0.148736 0
0 0.31147 0
0 0.498547 0
0 0.713503 0
0 0.950981 0
0 1.19634 0
0 1.42736 0
0 1.61814 0
0 1.74429 0
0 -9.10578 0
0 0.496418 0
0 0.148736 0
0 0.31147 0
0 0.498547 0
0 0.713503 0
0 0.950981 0
0 1.19634 0
0 1.42736 0
0 1.61814 0
0 1.74429 0
0 -9.10578 0

CELL_DATA 20
SCALARS ELEMENT_ID int 1
LOOKUP_TABLE default
6
7
8
9
10
1
2
3
4
5
12
13
14
15
16
17
18
19
20
21

SCALARS PART_ID int 1
LOOKUP_TABLE default
1
1
1
1
1
1
1
1
1
1
12
12
12
12
12
12
12
12
12
12

SCALARS EROSION_STATUS int 1
LOOKUP_TABLE default
1
1
1
1
1
1
1
1
1
1
1
1
1
1
1
1
1
1
1
1

