# vtk DataFile Version 3.0
vtk output
ASCII
DATASET UNSTRUCTURED_GRID
FIELD FieldData 2
TIME 1 1 double
0
CYCLE 1 1 int
0
POINTS 4 float
0 0 0
0.01 0 0
0.01 0.01 0
0 0.01 0

CELLS 1 5
4 0 1 2 3

CELL_TYPES 1
9

POINT_DATA 4
SCALARS NODE_ID int 1
LOOKUP_TABLE default
1
2
3
4

CELL_DATA 1
SCALARS ELEMENT_ID int 1
LOOKUP_TABLE default
1

SCALARS PART_ID int 1
LOOKUP_TABLE default
1

SCALARS EROSION_STATUS int 1
LOOKUP_TABLE default
1

