# vtk DataFile Version 3.0
vtk output
ASCII
DATASET UNSTRUCTURED_GRID
FIELD FieldData 2
TIME 1 1 double
0
CYCLE 1 1 int
0
POINTS 3 float
0 0 0
0 1 0
0 2 0

CELLS 1 3
2 0 1

CELL_TYPES 1
3

POINT_DATA 3
SCALARS NODE_ID int 1
LOOKUP_TABLE default
11
12
21

VECTORS Velocity float
0 0 0
0 0 0
0 0 0

VECTORS Displacement float
0 0 0
0 0 0
0 0 0

CELL_DATA 1
SCALARS ELEMENT_ID int 1
LOOKUP_TABLE default
11

SCALARS PART_ID int 1
LOOKUP_TABLE default
11

SCALARS EROSION_STATUS int 1
LOOKUP_TABLE default
1

SCALARS 1DELEM_Von_Mises float 1
LOOKUP_TABLE default
0

