# vtk DataFile Version 3.0
vtk output
ASCII
DATASET UNSTRUCTURED_GRID
FIELD FieldData 2
TIME 1 1 double
0.00100003
CYCLE 1 1 int
0
POINTS 14 float
-2.74464 2.75033 0.633042
0.244644 -0.250328 0.633042
0.244644 2.75033 0.633042
-2.74464 -0.250328 0.633042
-2.74464 2.75033 3.63363
0.244644 -0.250328 3.63363
0.244644 2.75033 3.63363
-2.74464 -0.250328 3.63363
0 0 0
1 0 0
0 1 0
0 0 12.8
65440 0 12.8
0 1144 12.8

CELLS 1 9
8 0 3 1 2 4 7 5 6

CELL_TYPES 1
12

POINT_DATA 14
SCALARS NODE_ID int 1
LOOKUP_TABLE default
33093
33094
33095
33098
33158
33159
33160
33163
33855
33856
33857
33858
33859
33860

SCALARS Mass_Change float 1
LOOKUP_TABLE default
0
0
0
0
0
0
0
0
0
0
0
0
0
0

VECTORS Velocity float
-33043.1 30237.5 -47914.4
33043.1 -30237.5 -47914.4
33043.1 30237.5 -47914.4
-33043.1 -30237.5 -47914.4
-33043.1 30237.5 47914.4
33043.1 -30237.5 47914.4
33043.1 30237.5 47914.4
-33043.1 -30237.5 47914.4
0 0 0
0 0 0
0 0 0
0 0 0
0 0 0
0 0 0

VECTORS Contact_Forces float
0 0 0
0 0 0
0 0 0
0 0 0
0 0 0
0 0 0
0 0 0
0 0 0
0 0 0
0 0 0
0 0 0
0 0 0
0 0 0
0 0 0

VECTORS Sect.RBY,Wall_F. float
0 0 0
0 0 0
0 0 0
0 0 0
0 0 0
0 0 0
0 0 0
0 0 0
0 0 0
0 0 0
0 0 0
0 0 0
0 0 0
0 0 0

VECTORS Sect.RBY_Moments float
0 0 0
0 0 0
0 0 0
0 0 0
0 0 0
0 0 0
0 0 0
0 0 0
0 0 0
0 0 0
0 0 0
0 0 0
0 0 0
0 0 0

CELL_DATA 1
SCALARS ELEMENT_ID int 1
LOOKUP_TABLE default
26512

SCALARS PART_ID int 1
LOOKUP_TABLE default
25

SCALARS EROSION_STATUS int 1
LOOKUP_TABLE default
1

SCALARS 3DELEM_Plastic_Strain float 1
LOOKUP_TABLE default
0.649153

SCALARS 3DELEM_Density float 1
LOOKUP_TABLE default
7.77766e-09

SCALARS 3DELEM_Pressure float 1
LOOKUP_TABLE default
-1612.73

SCALARS 3DELEM_Von_Mises float 1
LOOKUP_TABLE default
715.282

SCALARS 3DELEM_Hourglass_Energy float 1
LOOKUP_TABLE default
2.1442e-16

TENSORS 3DELEM_Stress float
1136.47 -1.6942e-09 -3.39895e-10
-1.6942e-09 1830.37 1.18917e-09
-3.39895e-10 1.18917e-09 1871.36

