# vtk DataFile Version 3.0
vtk output
ASCII
DATASET UNSTRUCTURED_GRID
FIELD FieldData 2
TIME 1 1 double
38.6041
CYCLE 1 1 int
0
POINTS 8 float
75 0 0
75 75 0
0 0 0
0 75 0
73.6041 0 70
73.6041 75 70
-1.39591 0 70
-1.39591 75 70

CELLS 1 9
8 3 2 0 1 7 6 4 5

CELL_TYPES 1
12

POINT_DATA 8
SCALARS NODE_ID int 1
LOOKUP_TABLE default
1129
1136
1185
1192
1577
1584
1633
1640

VECTORS Velocity float
0 0 0
0 0 0
0 0 0
0 0 0
1 0 0
1 0 0
1 0 0
1 0 0

VECTORS Displacement float
0 0 0
0 0 0
0 0 0
0 0 0
-1.39591 0 0
-1.39591 0 0
-1.39591 0 0
-1.39591 0 0

CELL_DATA 1
SCALARS ELEMENT_ID int 1
LOOKUP_TABLE default
687

SCALARS PART_ID int 1
LOOKUP_TABLE default
1

SCALARS EROSION_STATUS int 1
LOOKUP_TABLE default
1

SCALARS 3DELEM_Von_Mises float 1
LOOKUP_TABLE default
1.18585e-05

